# vtk DataFile Version 2.0
time_10.vtk
ASCII
DATASET STRUCTURED_GRID
DIMENSIONS 100 100 1
POINTS 10000 float
-0.4 -0.4 0
-0.4 0 0
-0.4 0.4 0
-0.4 0.8 0
-0.4 1.2 0
-0.4 1.6 0
-0.4 2 0
-0.4 2.4 0
-0.4 2.8 0
-0.4 3.2 0
-0.4 3.6 0
-0.4 4 0
-0.4 4.4 0
-0.4 4.8 0
-0.4 5.2 0
-0.4 5.6 0
-0.4 6 0
-0.4 6.4 0
-0.4 6.8 0
-0.4 7.2 0
-0.4 7.6 0
-0.4 8 0
-0.4 8.4 0
-0.4 8.8 0
-0.4 9.2 0
-0.4 9.6 0
-0.4 10 0
-0.4 10.4 0
-0.4 10.8 0
-0.4 11.2 0
-0.4 11.6 0
-0.4 12 0
-0.4 12.4 0
-0.4 12.8 0
-0.4 13.2 0
-0.4 13.6 0
-0.4 14 0
-0.4 14.4 0
-0.4 14.8 0
-0.4 15.2 0
-0.4 15.6 0
-0.4 16 0
-0.4 16.4 0
-0.4 16.8 0
-0.4 17.2 0
-0.4 17.6 0
-0.4 18 0
-0.4 18.4 0
-0.4 18.8 0
-0.4 19.2 0
-0.4 19.6 0
-0.4 20 0
-0.4 20.4 0
-0.4 20.8 0
-0.4 21.2 0
-0.4 21.6 0
-0.4 22 0
-0.4 22.4 0
-0.4 22.8 0
-0.4 23.2 0
-0.4 23.6 0
-0.4 24 0
-0.4 24.4 0
-0.4 24.8 0
-0.4 25.2 0
-0.4 25.6 0
-0.4 26 0
-0.4 26.4 0
-0.4 26.8 0
-0.4 27.2 0
-0.4 27.6 0
-0.4 28 0
-0.4 28.4 0
-0.4 28.8 0
-0.4 29.2 0
-0.4 29.6 0
-0.4 30 0
-0.4 30.4 0
-0.4 30.8 0
-0.4 31.2 0
-0.4 31.6 0
-0.4 32 0
-0.4 32.4 0
-0.4 32.8 0
-0.4 33.2 0
-0.4 33.6 0
-0.4 34 0
-0.4 34.4 0
-0.4 34.8 0
-0.4 35.2 0
-0.4 35.6 0
-0.4 36 0
-0.4 36.4 0
-0.4 36.8 0
-0.4 37.2 0
-0.4 37.6 0
-0.4 38 0
-0.4 38.4 0
-0.4 38.8 0
-0.4 39.2 0
0 -0.4 0
0 0 0
0 0.4 0
0 0.8 0
0 1.2 0
0 1.6 0
0 2 0
0 2.4 0
0 2.8 0
0 3.2 0
0 3.6 0
0 4 0
0 4.4 0
0 4.8 0
0 5.2 0
0 5.6 0
0 6 0
0 6.4 0
0 6.8 0
0 7.2 0
0 7.6 0
0 8 0
0 8.4 0
0 8.8 0
0 9.2 0
0 9.6 0
0 10 0
0 10.4 0
0 10.8 0
0 11.2 0
0 11.6 0
0 12 0
0 12.4 0
0 12.8 0
0 13.2 0
0 13.6 0
0 14 0
0 14.4 0
0 14.8 0
0 15.2 0
0 15.6 0
0 16 0
0 16.4 0
0 16.8 0
0 17.2 0
0 17.6 0
0 18 0
0 18.4 0
0 18.8 0
0 19.2 0
0 19.6 0
0 20 0
0 20.4 0
0 20.8 0
0 21.2 0
0 21.6 0
0 22 0
0 22.4 0
0 22.8 0
0 23.2 0
0 23.6 0
0 24 0
0 24.4 0
0 24.8 0
0 25.2 0
0 25.6 0
0 26 0
0 26.4 0
0 26.8 0
0 27.2 0
0 27.6 0
0 28 0
0 28.4 0
0 28.8 0
0 29.2 0
0 29.6 0
0 30 0
0 30.4 0
0 30.8 0
0 31.2 0
0 31.6 0
0 32 0
0 32.4 0
0 32.8 0
0 33.2 0
0 33.6 0
0 34 0
0 34.4 0
0 34.8 0
0 35.2 0
0 35.6 0
0 36 0
0 36.4 0
0 36.8 0
0 37.2 0
0 37.6 0
0 38 0
0 38.4 0
0 38.8 0
0 39.2 0
0.4 -0.4 0
0.4 0 0
0.4 0.4 0
0.4 0.8 0
0.4 1.2 0
0.4 1.6 0
0.4 2 0
0.4 2.4 0
0.4 2.8 0
0.4 3.2 0
0.4 3.6 0
0.4 4 0
0.4 4.4 0
0.4 4.8 0
0.4 5.2 0
0.4 5.6 0
0.4 6 0
0.4 6.4 0
0.4 6.8 0
0.4 7.2 0
0.4 7.6 0
0.4 8 0
0.4 8.4 0
0.4 8.8 0
0.4 9.2 0
0.4 9.6 0
0.4 10 0
0.4 10.4 0
0.4 10.8 0
0.4 11.2 0
0.4 11.6 0
0.4 12 0
0.4 12.4 0
0.4 12.8 0
0.4 13.2 0
0.4 13.6 0
0.4 14 0
0.4 14.4 0
0.4 14.8 0
0.4 15.2 0
0.4 15.6 0
0.4 16 0
0.4 16.4 0
0.4 16.8 0
0.4 17.2 0
0.4 17.6 0
0.4 18 0
0.4 18.4 0
0.4 18.8 0
0.4 19.2 0
0.4 19.6 0
0.4 20 0
0.4 20.4 0
0.4 20.8 0
0.4 21.2 0
0.4 21.6 0
0.4 22 0
0.4 22.4 0
0.4 22.8 0
0.4 23.2 0
0.4 23.6 0
0.4 24 0
0.4 24.4 0
0.4 24.8 0
0.4 25.2 0
0.4 25.6 0
0.4 26 0
0.4 26.4 0
0.4 26.8 0
0.4 27.2 0
0.4 27.6 0
0.4 28 0
0.4 28.4 0
0.4 28.8 0
0.4 29.2 0
0.4 29.6 0
0.4 30 0
0.4 30.4 0
0.4 30.8 0
0.4 31.2 0
0.4 31.6 0
0.4 32 0
0.4 32.4 0
0.4 32.8 0
0.4 33.2 0
0.4 33.6 0
0.4 34 0
0.4 34.4 0
0.4 34.8 0
0.4 35.2 0
0.4 35.6 0
0.4 36 0
0.4 36.4 0
0.4 36.8 0
0.4 37.2 0
0.4 37.6 0
0.4 38 0
0.4 38.4 0
0.4 38.8 0
0.4 39.2 0
0.8 -0.4 0
0.8 0 0
0.8 0.4 0
0.8 0.8 0
0.8 1.2 0
0.8 1.6 0
0.8 2 0
0.8 2.4 0
0.8 2.8 0
0.8 3.2 0
0.8 3.6 0
0.8 4 0
0.8 4.4 0
0.8 4.8 0
0.8 5.2 0
0.8 5.6 0
0.8 6 0
0.8 6.4 0
0.8 6.8 0
0.8 7.2 0
0.8 7.6 0
0.8 8 0
0.8 8.4 0
0.8 8.8 0
0.8 9.2 0
0.8 9.6 0
0.8 10 0
0.8 10.4 0
0.8 10.8 0
0.8 11.2 0
0.8 11.6 0
0.8 12 0
0.8 12.4 0
0.8 12.8 0
0.8 13.2 0
0.8 13.6 0
0.8 14 0
0.8 14.4 0
0.8 14.8 0
0.8 15.2 0
0.8 15.6 0
0.8 16 0
0.8 16.4 0
0.8 16.8 0
0.8 17.2 0
0.8 17.6 0
0.8 18 0
0.8 18.4 0
0.8 18.8 0
0.8 19.2 0
0.8 19.6 0
0.8 20 0
0.8 20.4 0
0.8 20.8 0
0.8 21.2 0
0.8 21.6 0
0.8 22 0
0.8 22.4 0
0.8 22.8 0
0.8 23.2 0
0.8 23.6 0
0.8 24 0
0.8 24.4 0
0.8 24.8 0
0.8 25.2 0
0.8 25.6 0
0.8 26 0
0.8 26.4 0
0.8 26.8 0
0.8 27.2 0
0.8 27.6 0
0.8 28 0
0.8 28.4 0
0.8 28.8 0
0.8 29.2 0
0.8 29.6 0
0.8 30 0
0.8 30.4 0
0.8 30.8 0
0.8 31.2 0
0.8 31.6 0
0.8 32 0
0.8 32.4 0
0.8 32.8 0
0.8 33.2 0
0.8 33.6 0
0.8 34 0
0.8 34.4 0
0.8 34.8 0
0.8 35.2 0
0.8 35.6 0
0.8 36 0
0.8 36.4 0
0.8 36.8 0
0.8 37.2 0
0.8 37.6 0
0.8 38 0
0.8 38.4 0
0.8 38.8 0
0.8 39.2 0
1.2 -0.4 0
1.2 0 0
1.2 0.4 0
1.2 0.8 0
1.2 1.2 0
1.2 1.6 0
1.2 2 0
1.2 2.4 0
1.2 2.8 0
1.2 3.2 0
1.2 3.6 0
1.2 4 0
1.2 4.4 0
1.2 4.8 0
1.2 5.2 0
1.2 5.6 0
1.2 6 0
1.2 6.4 0
1.2 6.8 0
1.2 7.2 0
1.2 7.6 0
1.2 8 0
1.2 8.4 0
1.2 8.8 0
1.2 9.2 0
1.2 9.6 0
1.2 10 0
1.2 10.4 0
1.2 10.8 0
1.2 11.2 0
1.2 11.6 0
1.2 12 0
1.2 12.4 0
1.2 12.8 0
1.2 13.2 0
1.2 13.6 0
1.2 14 0
1.2 14.4 0
1.2 14.8 0
1.2 15.2 0
1.2 15.6 0
1.2 16 0
1.2 16.4 0
1.2 16.8 0
1.2 17.2 0
1.2 17.6 0
1.2 18 0
1.2 18.4 0
1.2 18.8 0
1.2 19.2 0
1.2 19.6 0
1.2 20 0
1.2 20.4 0
1.2 20.8 0
1.2 21.2 0
1.2 21.6 0
1.2 22 0
1.2 22.4 0
1.2 22.8 0
1.2 23.2 0
1.2 23.6 0
1.2 24 0
1.2 24.4 0
1.2 24.8 0
1.2 25.2 0
1.2 25.6 0
1.2 26 0
1.2 26.4 0
1.2 26.8 0
1.2 27.2 0
1.2 27.6 0
1.2 28 0
1.2 28.4 0
1.2 28.8 0
1.2 29.2 0
1.2 29.6 0
1.2 30 0
1.2 30.4 0
1.2 30.8 0
1.2 31.2 0
1.2 31.6 0
1.2 32 0
1.2 32.4 0
1.2 32.8 0
1.2 33.2 0
1.2 33.6 0
1.2 34 0
1.2 34.4 0
1.2 34.8 0
1.2 35.2 0
1.2 35.6 0
1.2 36 0
1.2 36.4 0
1.2 36.8 0
1.2 37.2 0
1.2 37.6 0
1.2 38 0
1.2 38.4 0
1.2 38.8 0
1.2 39.2 0
1.6 -0.4 0
1.6 0 0
1.6 0.4 0
1.6 0.8 0
1.6 1.2 0
1.6 1.6 0
1.6 2 0
1.6 2.4 0
1.6 2.8 0
1.6 3.2 0
1.6 3.6 0
1.6 4 0
1.6 4.4 0
1.6 4.8 0
1.6 5.2 0
1.6 5.6 0
1.6 6 0
1.6 6.4 0
1.6 6.8 0
1.6 7.2 0
1.6 7.6 0
1.6 8 0
1.6 8.4 0
1.6 8.8 0
1.6 9.2 0
1.6 9.6 0
1.6 10 0
1.6 10.4 0
1.6 10.8 0
1.6 11.2 0
1.6 11.6 0
1.6 12 0
1.6 12.4 0
1.6 12.8 0
1.6 13.2 0
1.6 13.6 0
1.6 14 0
1.6 14.4 0
1.6 14.8 0
1.6 15.2 0
1.6 15.6 0
1.6 16 0
1.6 16.4 0
1.6 16.8 0
1.6 17.2 0
1.6 17.6 0
1.6 18 0
1.6 18.4 0
1.6 18.8 0
1.6 19.2 0
1.6 19.6 0
1.6 20 0
1.6 20.4 0
1.6 20.8 0
1.6 21.2 0
1.6 21.6 0
1.6 22 0
1.6 22.4 0
1.6 22.8 0
1.6 23.2 0
1.6 23.6 0
1.6 24 0
1.6 24.4 0
1.6 24.8 0
1.6 25.2 0
1.6 25.6 0
1.6 26 0
1.6 26.4 0
1.6 26.8 0
1.6 27.2 0
1.6 27.6 0
1.6 28 0
1.6 28.4 0
1.6 28.8 0
1.6 29.2 0
1.6 29.6 0
1.6 30 0
1.6 30.4 0
1.6 30.8 0
1.6 31.2 0
1.6 31.6 0
1.6 32 0
1.6 32.4 0
1.6 32.8 0
1.6 33.2 0
1.6 33.6 0
1.6 34 0
1.6 34.4 0
1.6 34.8 0
1.6 35.2 0
1.6 35.6 0
1.6 36 0
1.6 36.4 0
1.6 36.8 0
1.6 37.2 0
1.6 37.6 0
1.6 38 0
1.6 38.4 0
1.6 38.8 0
1.6 39.2 0
2 -0.4 0
2 0 0
2 0.4 0
2 0.8 0
2 1.2 0
2 1.6 0
2 2 0
2 2.4 0
2 2.8 0
2 3.2 0
2 3.6 0
2 4 0
2 4.4 0
2 4.8 0
2 5.2 0
2 5.6 0
2 6 0
2 6.4 0
2 6.8 0
2 7.2 0
2 7.6 0
2 8 0
2 8.4 0
2 8.8 0
2 9.2 0
2 9.6 0
2 10 0
2 10.4 0
2 10.8 0
2 11.2 0
2 11.6 0
2 12 0
2 12.4 0
2 12.8 0
2 13.2 0
2 13.6 0
2 14 0
2 14.4 0
2 14.8 0
2 15.2 0
2 15.6 0
2 16 0
2 16.4 0
2 16.8 0
2 17.2 0
2 17.6 0
2 18 0
2 18.4 0
2 18.8 0
2 19.2 0
2 19.6 0
2 20 0
2 20.4 0
2 20.8 0
2 21.2 0
2 21.6 0
2 22 0
2 22.4 0
2 22.8 0
2 23.2 0
2 23.6 0
2 24 0
2 24.4 0
2 24.8 0
2 25.2 0
2 25.6 0
2 26 0
2 26.4 0
2 26.8 0
2 27.2 0
2 27.6 0
2 28 0
2 28.4 0
2 28.8 0
2 29.2 0
2 29.6 0
2 30 0
2 30.4 0
2 30.8 0
2 31.2 0
2 31.6 0
2 32 0
2 32.4 0
2 32.8 0
2 33.2 0
2 33.6 0
2 34 0
2 34.4 0
2 34.8 0
2 35.2 0
2 35.6 0
2 36 0
2 36.4 0
2 36.8 0
2 37.2 0
2 37.6 0
2 38 0
2 38.4 0
2 38.8 0
2 39.2 0
2.4 -0.4 0
2.4 0 0
2.4 0.4 0
2.4 0.8 0
2.4 1.2 0
2.4 1.6 0
2.4 2 0
2.4 2.4 0
2.4 2.8 0
2.4 3.2 0
2.4 3.6 0
2.4 4 0
2.4 4.4 0
2.4 4.8 0
2.4 5.2 0
2.4 5.6 0
2.4 6 0
2.4 6.4 0
2.4 6.8 0
2.4 7.2 0
2.4 7.6 0
2.4 8 0
2.4 8.4 0
2.4 8.8 0
2.4 9.2 0
2.4 9.6 0
2.4 10 0
2.4 10.4 0
2.4 10.8 0
2.4 11.2 0
2.4 11.6 0
2.4 12 0
2.4 12.4 0
2.4 12.8 0
2.4 13.2 0
2.4 13.6 0
2.4 14 0
2.4 14.4 0
2.4 14.8 0
2.4 15.2 0
2.4 15.6 0
2.4 16 0
2.4 16.4 0
2.4 16.8 0
2.4 17.2 0
2.4 17.6 0
2.4 18 0
2.4 18.4 0
2.4 18.8 0
2.4 19.2 0
2.4 19.6 0
2.4 20 0
2.4 20.4 0
2.4 20.8 0
2.4 21.2 0
2.4 21.6 0
2.4 22 0
2.4 22.4 0
2.4 22.8 0
2.4 23.2 0
2.4 23.6 0
2.4 24 0
2.4 24.4 0
2.4 24.8 0
2.4 25.2 0
2.4 25.6 0
2.4 26 0
2.4 26.4 0
2.4 26.8 0
2.4 27.2 0
2.4 27.6 0
2.4 28 0
2.4 28.4 0
2.4 28.8 0
2.4 29.2 0
2.4 29.6 0
2.4 30 0
2.4 30.4 0
2.4 30.8 0
2.4 31.2 0
2.4 31.6 0
2.4 32 0
2.4 32.4 0
2.4 32.8 0
2.4 33.2 0
2.4 33.6 0
2.4 34 0
2.4 34.4 0
2.4 34.8 0
2.4 35.2 0
2.4 35.6 0
2.4 36 0
2.4 36.4 0
2.4 36.8 0
2.4 37.2 0
2.4 37.6 0
2.4 38 0
2.4 38.4 0
2.4 38.8 0
2.4 39.2 0
2.8 -0.4 0
2.8 0 0
2.8 0.4 0
2.8 0.8 0
2.8 1.2 0
2.8 1.6 0
2.8 2 0
2.8 2.4 0
2.8 2.8 0
2.8 3.2 0
2.8 3.6 0
2.8 4 0
2.8 4.4 0
2.8 4.8 0
2.8 5.2 0
2.8 5.6 0
2.8 6 0
2.8 6.4 0
2.8 6.8 0
2.8 7.2 0
2.8 7.6 0
2.8 8 0
2.8 8.4 0
2.8 8.8 0
2.8 9.2 0
2.8 9.6 0
2.8 10 0
2.8 10.4 0
2.8 10.8 0
2.8 11.2 0
2.8 11.6 0
2.8 12 0
2.8 12.4 0
2.8 12.8 0
2.8 13.2 0
2.8 13.6 0
2.8 14 0
2.8 14.4 0
2.8 14.8 0
2.8 15.2 0
2.8 15.6 0
2.8 16 0
2.8 16.4 0
2.8 16.8 0
2.8 17.2 0
2.8 17.6 0
2.8 18 0
2.8 18.4 0
2.8 18.8 0
2.8 19.2 0
2.8 19.6 0
2.8 20 0
2.8 20.4 0
2.8 20.8 0
2.8 21.2 0
2.8 21.6 0
2.8 22 0
2.8 22.4 0
2.8 22.8 0
2.8 23.2 0
2.8 23.6 0
2.8 24 0
2.8 24.4 0
2.8 24.8 0
2.8 25.2 0
2.8 25.6 0
2.8 26 0
2.8 26.4 0
2.8 26.8 0
2.8 27.2 0
2.8 27.6 0
2.8 28 0
2.8 28.4 0
2.8 28.8 0
2.8 29.2 0
2.8 29.6 0
2.8 30 0
2.8 30.4 0
2.8 30.8 0
2.8 31.2 0
2.8 31.6 0
2.8 32 0
2.8 32.4 0
2.8 32.8 0
2.8 33.2 0
2.8 33.6 0
2.8 34 0
2.8 34.4 0
2.8 34.8 0
2.8 35.2 0
2.8 35.6 0
2.8 36 0
2.8 36.4 0
2.8 36.8 0
2.8 37.2 0
2.8 37.6 0
2.8 38 0
2.8 38.4 0
2.8 38.8 0
2.8 39.2 0
3.2 -0.4 0
3.2 0 0
3.2 0.4 0
3.2 0.8 0
3.2 1.2 0
3.2 1.6 0
3.2 2 0
3.2 2.4 0
3.2 2.8 0
3.2 3.2 0
3.2 3.6 0
3.2 4 0
3.2 4.4 0
3.2 4.8 0
3.2 5.2 0
3.2 5.6 0
3.2 6 0
3.2 6.4 0
3.2 6.8 0
3.2 7.2 0
3.2 7.6 0
3.2 8 0
3.2 8.4 0
3.2 8.8 0
3.2 9.2 0
3.2 9.6 0
3.2 10 0
3.2 10.4 0
3.2 10.8 0
3.2 11.2 0
3.2 11.6 0
3.2 12 0
3.2 12.4 0
3.2 12.8 0
3.2 13.2 0
3.2 13.6 0
3.2 14 0
3.2 14.4 0
3.2 14.8 0
3.2 15.2 0
3.2 15.6 0
3.2 16 0
3.2 16.4 0
3.2 16.8 0
3.2 17.2 0
3.2 17.6 0
3.2 18 0
3.2 18.4 0
3.2 18.8 0
3.2 19.2 0
3.2 19.6 0
3.2 20 0
3.2 20.4 0
3.2 20.8 0
3.2 21.2 0
3.2 21.6 0
3.2 22 0
3.2 22.4 0
3.2 22.8 0
3.2 23.2 0
3.2 23.6 0
3.2 24 0
3.2 24.4 0
3.2 24.8 0
3.2 25.2 0
3.2 25.6 0
3.2 26 0
3.2 26.4 0
3.2 26.8 0
3.2 27.2 0
3.2 27.6 0
3.2 28 0
3.2 28.4 0
3.2 28.8 0
3.2 29.2 0
3.2 29.6 0
3.2 30 0
3.2 30.4 0
3.2 30.8 0
3.2 31.2 0
3.2 31.6 0
3.2 32 0
3.2 32.4 0
3.2 32.8 0
3.2 33.2 0
[...]
POINT_DATA 10000
SCALARS CON float 1
LOOKUP_TABLE default
1e-05
1e-05
1e-05
1e-05
1e-05
1e-05
1e-05
1e-05
1e-05
1e-05
1e-05
1e-05
1e-05
1e-05
1e-05
1e-05
1e-05
1e-05
1e-05
1e-05
1e-05
1e-05
1e-05
1e-05
1e-05
1e-05
1e-05
1e-05
1e-05
1e-05
1e-05
1e-05
1e-05
1e-05
1e-05
1e-05
1e-05
1e-05
1e-05
1e-05
1e-05
1e-05
1e-05
1e-05
1e-05
1e-05
1e-05
1e-05
1e-05
1e-05
1e-05
1e-05
1e-05
1e-05
1e-05
1e-05
1e-05
1e-05
1e-05
1e-05
1e-05
1e-05
1e-05
1e-05
1e-05
1e-05
1e-05
1e-05
1e-05
1e-05
1e-05
1e-05
1e-05
1e-05
1e-05
1e-05
1e-05
1e-05
1e-05
1e-05
1e-05
1e-05
1e-05
1e-05
1e-05
1e-05
1e-05
1e-05
1e-05
1e-05
1e-05
1e-05
1e-05
1e-05
1e-05
1e-05
1e-05
1e-05
1e-05
1e-05
1e-05
1e-05
1e-05
1e-05
1e-05
1e-05
1e-05
1e-05
1e-05
1e-05
1e-05
1e-05
1e-05
1e-05
1e-05
1e-05
1e-05
1e-05
1e-05
1e-05
1e-05
1e-05
1e-05
1e-05
1e-05
1e-05
1e-05
1e-05
1e-05
1e-05
1e-05
1e-05
1e-05
1e-05
1e-05
1e-05
1e-05
1e-05
1e-05
1e-05
1e-05
1e-05
1e-05
1e-05
1e-05
1e-05
1e-05
1e-05
1e-05
1e-05
1e-05
1e-05
1e-05
1e-05
1e-05
1e-05
1e-05
1e-05
1e-05
1e-05
1e-05
1e-05
1e-05
1e-05
1e-05
1e-05
1e-05
1e-05
1e-05
1e-05
1e-05
1e-05
1e-05
1e-05
1e-05
1e-05
1e-05
1e-05
1e-05
1e-05
1e-05
1e-05
1e-05
1e-05
1e-05
1e-05
1e-05
1e-05
1e-05
1e-05
1e-05
1e-05
1e-05
1e-05
1e-05
1e-05
1e-05
1e-05
1e-05
1e-05
1e-05
1e-05
1e-05
1e-05
1e-05
1e-05
1e-05
1e-05
1e-05
1e-05
1e-05
1e-05
1e-05
1e-05
1e-05
1e-05
1e-05
1e-05
1e-05
1e-05
1e-05
1e-05
1e-05
1e-05
1e-05
1e-05
1e-05
1e-05
1e-05
1e-05
1e-05
1e-05
1e-05
1e-05
1e-05
1e-05
1e-05
1e-05
1e-05
1e-05
1e-05
1e-05
1e-05
1e-05
1e-05
1e-05
1e-05
1e-05
1e-05
1e-05
1e-05
1e-05
1e-05
1e-05
1e-05
1e-05
1e-05
1e-05
1e-05
1e-05
1e-05
1e-05
1e-05
1e-05
1e-05
1e-05
1e-05
1e-05
1e-05
1e-05
1e-05
1e-05
1e-05
1e-05
1e-05
1e-05
1e-05
1e-05
1e-05
1e-05
1e-05
1e-05
1e-05
1e-05
1e-05
1e-05
1e-05
1e-05
1e-05
1e-05
1e-05
1e-05
1e-05
1e-05
1e-05
1e-05
1e-05
1e-05
1e-05
1e-05
1e-05
1e-05
1e-05
1e-05
1e-05
1e-05
1e-05
1e-05
1e-05
1e-05
1e-05
1e-05
1e-05
1e-05
1e-05
1e-05
1e-05
1e-05
1e-05
1e-05
1e-05
1e-05
1e-05
1e-05
1e-05
1e-05
1e-05
1e-05
1e-05
1e-05
1e-05
1e-05
1e-05
1e-05
1e-05
1e-05
1e-05
1e-05
1e-05
1e-05
1e-05
1e-05
1e-05
1e-05
1e-05
1e-05
1e-05
1e-05
1e-05
1e-05
1e-05
1e-05
1e-05
1e-05
1e-05
1e-05
1e-05
1e-05
1e-05
1e-05
1e-05
1e-05
1e-05
1e-05
1e-05
1e-05
1e-05
1e-05
1e-05
1e-05
1e-05
1e-05
1e-05
1e-05
1e-05
1e-05
1e-05
1e-05
1e-05
1e-05
1e-05
1e-05
1e-05
1e-05
1e-05
1e-05
1e-05
1e-05
1e-05
1e-05
1e-05
1e-05
1e-05
1e-05
1e-05
1e-05
1e-05
1e-05
1e-05
1e-05
1e-05
1e-05
1e-05
1e-05
1e-05
1e-05
1e-05
1e-05
1e-05
1e-05
1e-05
1e-05
1e-05
1e-05
1e-05
1e-05
1e-05
1e-05
1e-05
1e-05
1e-05
1e-05
1e-05
1e-05
1e-05
1e-05
1e-05
1e-05
1e-05
1e-05
1e-05
1e-05
1e-05
1e-05
1e-05
1e-05
1e-05
1e-05
1e-05
1e-05
1e-05
1e-05
1e-05
1e-05
1e-05
1e-05
1e-05
1e-05
1e-05
1e-05
1e-05
1e-05
1e-05
1e-05
1e-05
1e-05
1e-05
1e-05
1e-05
1e-05
1e-05
1e-05
1e-05
1e-05
1e-05
1e-05
1e-05
1e-05
1e-05
1e-05
1e-05
1e-05
1e-05
1e-05
1e-05
1e-05
1e-05
1e-05
1e-05
1e-05
1e-05
1e-05
1e-05
1e-05
1e-05
1e-05
1e-05
1e-05
1e-05
1e-05
1e-05
1e-05
1e-05
1e-05
1e-05
1e-05
1e-05
1e-05
1e-05
1e-05
1e-05
1e-05
1e-05
1e-05
1e-05
1e-05
1e-05
1e-05
1e-05
1e-05
1e-05
1e-05
1e-05
1e-05
1e-05
1e-05
1e-05
1e-05
1e-05
1e-05
1e-05
1e-05
1e-05
1e-05
1e-05
1e-05
1e-05
1e-05
1e-05
1e-05
1e-05
1e-05
1e-05
1e-05
1e-05
1e-05
1e-05
1e-05
1e-05
1e-05
1e-05
1e-05
1e-05
1e-05
1e-05
1e-05
1e-05
1e-05
1e-05
1e-05
1e-05
1e-05
1e-05
1e-05
1e-05
1e-05
1e-05
1e-05
1e-05
1e-05
1e-05
1e-05
1e-05
1e-05
1e-05
1e-05
1e-05
1e-05
1e-05
1e-05
1e-05
1e-05
1e-05
1e-05
1e-05
1e-05
1e-05
1e-05
1e-05
1e-05
1e-05
1e-05
1e-05
1e-05
1e-05
1e-05
1e-05
1e-05
1e-05
1e-05
1e-05
1e-05
1e-05
1e-05
1e-05
1e-05
1e-05
1e-05
1e-05
1e-05
1e-05
1e-05
1e-05
1e-05
1e-05
1e-05
1e-05
1e-05
1e-05
1e-05
1e-05
1e-05
1e-05
1e-05
1e-05
1e-05
1e-05
1e-05
1e-05
1e-05
1e-05
1e-05
1e-05
1e-05
1e-05
1e-05
1e-05
1e-05
1e-05
1e-05
1e-05
1e-05
1e-05
1e-05
1e-05
1e-05
1e-05
1e-05
1e-05
1e-05
1e-05
1e-05
1e-05
1e-05
1e-05
1e-05
1e-05
1e-05
1e-05
1e-05
1e-05
1e-05
1e-05
1e-05
1e-05
1e-05
1e-05
1e-05
1e-05
1e-05
1e-05
1e-05
1e-05
1e-05
1e-05
1e-05
1e-05
1e-05
1e-05
1e-05
1e-05
1e-05
1e-05
1e-05
1e-05
1e-05
1e-05
1e-05
1e-05
1e-05
1e-05
1e-05
1e-05
1e-05
1e-05
1e-05
1e-05
1e-05
1e-05
1e-05
1e-05
1e-05
1e-05
1e-05
1e-05
1e-05
1e-05
1e-05
1e-05
1e-05
1e-05
1e-05
1e-05
1e-05
1e-05
1e-05
1e-05
1e-05
1e-05
1e-05
1e-05
1e-05
1e-05
1e-05
1e-05
1e-05
1e-05
1e-05
1e-05
1e-05
1e-05
1e-05
1e-05
1e-05
1e-05
1e-05
1e-05
1e-05
1e-05
1e-05
1e-05
1e-05
1e-05
1e-05
1e-05
1e-05
1e-05
1e-05
1e-05
1e-05
1e-05
1e-05
1e-05
1e-05
1e-05
1e-05
1e-05
1e-05
1e-05
1e-05
1e-05
1e-05
1e-05
1e-05
1e-05
1e-05
1e-05
1e-05
1e-05
1e-05
1e-05
1e-05
1e-05
1e-05
1e-05
1e-05
1e-05
1e-05
1e-05
1e-05
1e-05
1e-05
1e-05
1e-05
1e-05
1e-05
1e-05
1e-05
1e-05
1e-05
1e-05
1e-05
1e-05
1e-05
1e-05
1e-05
1e-05
1e-05
1e-05
1e-05
1e-05
1e-05
1e-05
1e-05
1e-05
1e-05
1e-05
1e-05
1e-05
1e-05
1e-05
1e-05
1e-05
1e-05
1e-05
1e-05
1e-05
1e-05
1e-05
1e-05
1e-05
1e-05
1e-05
1e-05
1e-05
1e-05
1e-05
1e-05
1e-05
1e-05
1e-05
1e-05
1e-05
1e-05
1e-05
1e-05
1e-05
1e-05
1e-05
1e-05
1e-05
1e-05
1e-05
1e-05
1e-05
1e-05
1e-05
1e-05
1e-05
1e-05
1e-05
1e-05
1e-05
1e-05
1e-05
1e-05
1e-05
1e-05
1e-05
1e-05
1e-05
1e-05
1e-05
1e-05
1e-05
1e-05
1e-05
1e-05
1e-05
1e-05
1e-05
1e-05
1e-05
1e-05
1e-05
1e-05
1e-05
1e-05
1e-05
1e-05
1e-05
1e-05
1e-05
1e-05
1e-05
1e-05
1e-05
1e-05
1e-05
1e-05
1e-05
1e-05
1e-05
1e-05
1e-05
1e-05
1e-05
1e-05
1e-05
1e-05
1e-05
1e-05
1e-05
1e-05
1e-05
1e-05
1e-05
1e-05
1e-05
1e-05
1e-05
1e-05
1e-05
1e-05
1e-05
1e-05
1e-05
1e-05
1e-05
1e-05
1e-05
1e-05
1e-05
1e-05
1e-05
1e-05
1e-05
1e-05
1e-05
1e-05
1e-05
1e-05
1e-05
1e-05
1e-05
1e-05
1e-05
1e-05
1e-05
1e-05
1e-05
1e-05
1e-05
1e-05
1e-05
1e-05
1e-05
1e-05
1e-05
1e-05
1e-05
1e-05
1e-05
1e-05
1e-05
1e-05
1e-05
1e-05
1e-05
1e-05
1e-05
1e-05
1e-05
1e-05
1e-05
1e-05
1e-05
1e-05
1e-05
1e-05
1e-05
1e-05
1e-05
1e-05
1e-05
1e-05
1e-05
1e-05
1e-05
1e-05
1e-05
1e-05
1e-05
1e-05
1e-05
1e-05
1e-05
1e-05
1e-05
1e-05
1e-05
1e-05
1e-05
1e-05
1e-05
1e-05
1e-05
1e-05
1e-05
1e-05
1e-05
1e-05
1e-05
1e-05
1e-05
1e-05
1e-05
1e-05
1e-05
1e-05
1e-05
1e-05
1e-05
1e-05
1e-05
1e-05
1e-05
1e-05
1e-05
1e-05
1e-05
1e-05
1e-05
1e-05
1e-05
1e-05
1e-05
1e-05
1e-05
1e-05
1e-05
1e-05
1e-05
1e-05
1e-05
1e-05
1e-05
1e-05
1e-05
1e-05
1e-05
1e-05
1e-05
1e-05
1e-05
1e-05
1e-05
1e-05
1e-05
1e-05
1e-05
1e-05
1e-05
1e-05
1e-05
1e-05
1e-05
1e-05
1e-05
1e-05
1e-05
1e-05
1e-05
1e-05
1e-05
1e-05
1e-05
1e-05
1e-05
1e-05
1e-05
1e-05
1e-05
1e-05
1e-05
1e-05
1e-05
1e-05
1e-05
1e-05
1e-05
1e-05
1e-05
1e-05
1e-05
1e-05
1e-05
1e-05
1e-05
1e-05
1e-05
1e-05
1e-05
1e-05
1e-05
1e-05
1e-05
1e-05
1e-05
1e-05
1e-05
1e-05
1e-05
1e-05
1e-05
1e-05
1e-05
1e-05
1e-05
1e-05
1e-05
1e-05
1e-05
1e-05
1e-05
1e-05
1e-05
1e-05
1e-05
1e-05
1e-05
1e-05
1e-05
1e-05
1e-05
1e-05
1e-05
1e-05
1e-05
1e-05
1e-05
1e-05
1e-05
1e-05
1e-05
1e-05
1e-05
1e-05
1e-05
1e-05
1e-05
1e-05
1e-05
1e-05
1e-05
1e-05
1e-05
1e-05
1e-05
1e-05
1e-05
1e-05
1e-05
1e-05
1e-05
1e-05
1e-05
1e-05
1.00755e-05
1.09298e-05
1.15544e-05
1.12334e-05
1.03177e-05
1e-05
1e-05
1e-05
1e-05
1e-05
1e-05
1e-05
1e-05
1e-05
1e-05
1e-05
1e-05
1e-05
1e-05
1e-05
1e-05
1e-05
1e-05
1e-05
1e-05
1e-05
1e-05
1e-05
1e-05
1e-05
1e-05
1e-05
1e-05
1e-05
1e-05
1e-05
1e-05
1e-05
1e-05
1e-05
1e-05
1e-05
1e-05
1e-05
1e-05
1e-05
1e-05
1e-05
1e-05
1e-05
1e-05
1e-05
1e-05
1e-05
1e-05
1e-05
1e-05
1e-05
1e-05
1e-05
1e-05
1e-05
1e-05
1e-05
1e-05
1e-05
1e-05
1e-05
1e-05
1e-05
1e-05
1e-05
1e-05
1e-05
1e-05
1e-05
1e-05
1e-05
1e-05
1e-05
1e-05
1e-05
1e-05
1e-05
1e-05
1e-05
1e-05
1e-05
1e-05
1e-05
1e-05
1e-05
1e-05
1e-05
1e-05
1e-05
1.06841e-05
2.3484e-05
5.15269e-05
9.07942e-05
0.000132038
0.000164321
0.000178945
0.000171974
0.000145253
0.000105974
6.46754e-05
3.17754e-05
1.33902e-05
1e-05
1e-05
1e-05
1e-05
1e-05
1e-05
1e-05
1e-05
1e-05
1e-05
1e-05
1e-05
1e-05
1e-05
1e-05
1e-05
1e-05
1e-05
1e-05
1e-05
1e-05
1e-05
1e-05
1e-05
1e-05
1e-05
1e-05
1e-05
1e-05
1e-05
1e-05
1e-05
1e-05
1e-05
1e-05
1e-05
1e-05
1e-05
1e-05
1e-05
1e-05
1e-05
1e-05
1e-05
1e-05
1e-05
1e-05
1e-05
1e-05
1e-05
1e-05
1e-05
1e-05
1e-05
1e-05
1e-05
1e-05
1e-05
1e-05
1e-05
1e-05
1e-05
1e-05
1e-05
1e-05
1e-05
1e-05
1e-05
1e-05
1e-05
1e-05
1e-05
1e-05
1e-05
1e-05
1e-05
1e-05
1e-05
1e-05
1e-05
1e-05
1e-05
1e-05
1e-05
1e-05
1.46948e-05
5.53172e-05
0.000148451
0.000290534
0.000454971
0.000612979
0.000743456
0.000831965
0.000869488
0.000852268
0.000781945
0.000665501
0.000515264
0.000349728
0.000195254
8.21482e-05
2.38935e-05
1e-05
1e-05
1e-05
1e-05
1e-05
1e-05
1e-05
1e-05
1e-05
1e-05
1e-05
1e-05
1e-05
1e-05
1e-05
1e-05
1e-05
1e-05
1e-05
1e-05
1e-05
1e-05
1e-05
1e-05
1e-05
1e-05
1e-05
1e-05
1e-05
1e-05
1e-05
1e-05
1e-05
1e-05
1e-05
1e-05
1e-05
1e-05
1e-05
1e-05
1e-05
1e-05
1e-05
1e-05
1e-05
1e-05
1e-05
1e-05
1e-05
1e-05
1e-05
1e-05
1e-05
1e-05
1e-05
1e-05
1e-05
1e-05
1e-05
1e-05
1e-05
1e-05
1e-05
1e-05
1e-05
1e-05
1e-05
1e-05
1e-05
1e-05
1e-05
1e-05
1e-05
1e-05
1e-05
1e-05
1e-05
1e-05
1e-05
1e-05
1e-05
1.06551e-05
5.31591e-05
0.0001866
0.000413709
0.000697875
0.00100629
0.00130784
0.00157451
0.00178474
0.0019236
0.0019819
0.00195587
0.00184704
0.00166234
0.00141436
0.00112211
0.000811523
0.000513442
0.000260024
8.87679e-05
1.73603e-05
1e-05
1e-05
1e-05
1e-05
1e-05
1e-05
1e-05
1e-05
1e-05
1e-05
1e-05
1e-05
1e-05
1e-05
1e-05
1e-05
1e-05
1e-05
1e-05
1e-05
1e-05
1e-05
1e-05
1e-05
1e-05
1e-05
1e-05
1e-05
1e-05
1e-05
1e-05
1e-05
1e-05
1e-05
1e-05
1e-05
1e-05
1e-05
1e-05
1e-05
1e-05
1e-05
1e-05
1e-05
1e-05
1e-05
1e-05
1e-05
1e-05
1e-05
1e-05
1e-05
1e-05
1e-05
1e-05
1e-05
1e-05
1e-05
1e-05
1e-05
1e-05
1e-05
1e-05
1e-05
1e-05
1e-05
1e-05
1e-05
1e-05
1e-05
1e-05
1e-05
1e-05
1e-05
1e-05
1e-05
1e-05
1e-05
1.83325e-05
0.000114032
0.000348996
0.000703398
0.0011353
0.0015988
0.00205708
0.00248011
0.00284232
0.00312307
0.00330701
0.00338431
0.00335077
0.003208
0.00296336
0.0026299
0.00222625
0.00177629
0.0013086
0.000857482
0.000466617
0.000181925
3.79441e-05
1e-05
1e-05
1e-05
1e-05
1e-05
1e-05
1e-05
1e-05
1e-05
1e-05
1e-05
1e-05
1e-05
1e-05
1e-05
1e-05
1e-05
1e-05
1e-05
1e-05
1e-05
1e-05
1e-05
1e-05
1e-05
1e-05
1e-05
1e-05
1e-05
1e-05
1e-05
1e-05
1e-05
1e-05
1e-05
1e-05
1e-05
1e-05
1e-05
1e-05
1e-05
1e-05
1e-05
1e-05
1e-05
1e-05
1e-05
1e-05
1e-05
1e-05
1e-05
1e-05
1e-05
1e-05
1e-05
1e-05
1e-05
1e-05
1e-05
1e-05
1e-05
1e-05
1e-05
1e-05
1e-05
1e-05
1e-05
1e-05
1e-05
1e-05
1e-05
1e-05
1e-05
1e-05
1e-05
1e-05
2.31986e-05
0.000155475
0.000468715
0.000934246
0.00149887
0.00211311
0.00273446
0.00332816
0.00386494
0.00431932
0.00466967
0.00489899
0.00499585
0.00495523
0.0047789
0.00447534
0.00405916
0.00355022
0.00297273
0.00235475
0.00172921
0.00113627
0.000623791
0.000247065
5.06082e-05
1e-05
1e-05
1e-05
1e-05
1e-05
1e-05
1e-05
1e-05
1e-05
1e-05
1e-05
1e-05
1e-05
1e-05
1e-05
1e-05
1e-05
1e-05
1e-05
1e-05
1e-05
1e-05
1e-05
1e-05
1e-05
1e-05
1e-05
1e-05
1e-05
1e-05
1e-05
1e-05
1e-05
1e-05
1e-05
1e-05
1e-05
1e-05
1e-05
1e-05
1e-05
1e-05
1e-05
1e-05
1e-05
1e-05
1e-05
1e-05
1e-05
1e-05
1e-05
1e-05
1e-05
1e-05
1e-05
1e-05
1e-05
1e-05
1e-05
1e-05
1e-05
1e-05
1e-05
1e-05
1e-05
1e-05
1e-05
1e-05
1e-05
1e-05
1e-05
1e-05
1e-05
1e-05
1.79931e-05
0.000151267
0.000503855
0.00104834
0.00172355
0.00247329
0.00325184
0.00402097
0.0047474
0.00540092
0.00595361
0.00638045
0.00666076
0.00678017
0.00673212
0.00651876
0.00615066
0.0056457
0.00502725
0.00432247
0.00356116
0.00277596
0.00200375
0.00128805
0.00068267
0.000250849
4.21504e-05
1e-05
1e-05
1e-05
1e-05
1e-05
1e-05
1e-05
1e-05
1e-05
1e-05
1e-05
1e-05
1e-05
1e-05
1e-05
1e-05
1e-05
1e-05
1e-05
1e-05
1e-05
1e-05
1e-05
1e-05
1e-05
1e-05
1e-05
1e-05
1e-05
1e-05
1e-05
1e-05
1e-05
1e-05
1e-05
1e-05
1e-05
1e-05
1e-05
1e-05
1e-05
1e-05
1e-05
1e-05
1e-05
1e-05
1e-05
1e-05
1e-05
1e-05
1e-05
1e-05
1e-05
1e-05
1e-05
1e-05
1e-05
1e-05
1e-05
1e-05
1e-05
1e-05
1e-05
1e-05
1e-05
1e-05
1e-05
1e-05
1e-05
1e-05
1e-05
1e-05
1.05461e-05
0.000104351
0.00044317
0.00102191
0.00177336
0.00263358
0.00355217
0.00448862
0.00540754
0.00627549
0.0070594
0.0077264
0.00824514
0.00858839
0.00873637
0.00867977
0.00842143
0.00797583
0.0073668
0.00662424
0.00578105
0.00487109
0.00392857
0.00298898
0.00209156
0.00128384
0.000626607
0.000191606
2.14475e-05
1e-05
1e-05
1e-05
1e-05
1e-05
1e-05
1e-05
1e-05
1e-05
1e-05
1e-05
1e-05
1e-05
1e-05
1e-05
1e-05
1e-05
1e-05
1e-05
1e-05
1e-05
1e-05
1e-05
1e-05
1e-05
1e-05
1e-05
1e-05
1e-05
1e-05
1e-05
1e-05
1e-05
1e-05
1e-05
1e-05
1e-05
1e-05
1e-05
1e-05
1e-05
1e-05
1e-05
1e-05
1e-05
1e-05
1e-05
1e-05
1e-05
1e-05
1e-05
1e-05
1e-05
1e-05
1e-05
1e-05
1e-05
1e-05
1e-05
1e-05
1e-05
1e-05
1e-05
1e-05
1e-05
1e-05
1e-05
1e-05
1e-05
1e-05
1e-05
4.5264e-05
0.000307417
0.000861116
0.00164155
0.00257486
0.00360392
0.00468557
0.00578407
0.00686595
0.00789671
0.00883906
0.00965245
0.0102947
0.0107259
0.0109151
0.0108472
0.0105263
0.00997558
0.00923087
0.00833413
0.00732776
0.00625172
0.00514302
0.00403678
0.00296889
0.00198052
0.00112459
0.000471721
9.96589e-05
1.00384e-05
1e-05
1e-05
1e-05
1e-05
1e-05
1e-05
1e-05
1e-05
1e-05
1e-05
1e-05
1e-05
1e-05
1e-05
1e-05
1e-05
1e-05
1e-05
1e-05
1e-05
1e-05
1e-05
1e-05
1e-05
1e-05
1e-05
1e-05
1e-05
1e-05
1e-05
1e-05
1e-05
1e-05
1e-05
1e-05
1e-05
1e-05
1e-05
1e-05
1e-05
1e-05
1e-05
1e-05
1e-05
1e-05
1e-05
1e-05
1e-05
1e-05
1e-05
1e-05
1e-05
1e-05
1e-05
1e-05
1e-05
1e-05
1e-05
1e-05
1e-05
1e-05
1e-05
1e-05
1e-05
1e-05
1e-05
1e-05
1e-05
1e-05
1.25733e-05
0.000146741
0.000602137
0.00134921
0.00230501
0.00340191
0.00459203
0.00583977
0.00711491
0.00838764
0.00962489
0.0107868
0.0118226
0.0126691
0.0132559
0.0135216
0.0134335
0.0130007
0.0122703
0.0113102
0.0101896
0.00896686
0.0076885
0.00639197
0.0051099
0.00387366
0.00271779
0.0016864
0.000841535
0.000266655
2.93324e-05
1e-05
1e-05
1e-05
1e-05
1e-05
1e-05
1e-05
1e-05
1e-05
1e-05
1e-05
1e-05
1e-05
1e-05
1e-05
1e-05
1e-05
1e-05
1e-05
1e-05
1e-05
1e-05
1e-05
1e-05
1e-05
1e-05
1e-05
1e-05
1e-05
1e-05
1e-05
1e-05
1e-05
1e-05
1e-05
1e-05
1e-05
1e-05
1e-05
1e-05
1e-05
1e-05
1e-05
1e-05
1e-05
1e-05
1e-05
1e-05
1e-05
1e-05
1e-05
1e-05
1e-05
1e-05
1e-05
1e-05
1e-05
1e-05
1e-05
1e-05
1e-05
1e-05
1e-05
1e-05
1e-05
1e-05
1e-05
1e-05
1e-05
3.76758e-05
0.000314231
0.00094673
0.00185914
0.00296847
0.00421697
0.00556705
0.00699309
0.00847607
0.0100005
0.0115506
0.0130997
0.0145889
0.015904
0.0168788
0.0173443
0.0172042
0.0164849
0.0153212
0.0138898
0.0123394
0.0107599
0.00919419
0.00766324
0.00618318
0.00477255
0.00345536
0.00226543
0.00125401
0.000498052
8.79798e-05
1e-05
1e-05
1e-05
1e-05
1e-05
1e-05
1e-05
1e-05
1e-05
1e-05
1e-05
1e-05
1e-05
1e-05
1e-05
1e-05
1e-05
1e-05
1e-05
1e-05
1e-05
1e-05
1e-05
1e-05
1e-05
1e-05
1e-05
1e-05
1e-05
1e-05
1e-05
1e-05
1e-05
1e-05
1e-05
1e-05
1e-05
1e-05
1e-05
1e-05
1e-05
1e-05
1e-05
1e-05
1e-05
1e-05
1e-05
1e-05
1e-05
1e-05
1e-05
1e-05
1e-05
1e-05
1e-05
1e-05
1e-05
1e-05
1e-05
1e-05
1e-05
1e-05
1e-05
1e-05
1e-05
1e-05
1e-05
1e-05
1e-05
9.03523e-05
0.000515505
0.00130022
0.002353
0.00359875
0.0049916
0.0065077
0.00814071
0.00990415
0.011839
0.0140155
0.0165001
0.0192582
0.0220255
0.0242799
0.0254266
0.0251094
0.0234247
0.0208621
0.0180213
0.0153308
0.0129495
0.0108555
0.00897329
0.00724437
0.00564166
0.00416321
0.00282639
0.00166921
0.000757823
0.000187133
1.46646e-05
1e-05
1e-05
1e-05
1e-05
1e-05
1e-05
1e-05
1e-05
1e-05
1e-05
1e-05
1e-05
1e-05
1e-05
1e-05
1e-05
1e-05
1e-05
1e-05
1e-05
1e-05
1e-05
1e-05
1e-05
1e-05
1e-05
1e-05
1e-05
1e-05
1e-05
1e-05
1e-05
1e-05
1e-05
1e-05
1e-05
1e-05
1e-05
1e-05
1e-05
1e-05
1e-05
1e-05
1e-05
1e-05
1e-05
1e-05
1e-05
1e-05
1e-05
1e-05
1e-05
1e-05
1e-05
1e-05
1e-05
1e-05
1e-05
1e-05
1e-05
1e-05
1e-05
1e-05
1e-05
1e-05
1e-05
1e-05
1.28349e-05
0.000164097
0.000719373
0.00163045
0.00280235
0.00417089
0.00570558
0.00740706
0.00931738
0.0115534
0.0143653
0.0181818
0.0235155
0.0305541
0.0385362
0.0455433
0.0492605
0.048275
0.0429672
0.0352639
0.0274634
0.0210565
0.0163583
0.0129805
0.0104155
0.00830705
0.00646787
0.0048197
0.00334383
0.00205861
0.00101717
0.000310942
3.02e-05
1e-05
1e-05
1e-05
1e-05
1e-05
1e-05
1e-05
1e-05
1e-05
1e-05
1e-05
1e-05
1e-05
1e-05
1e-05
1e-05
1e-05
1e-05
1e-05
1e-05
1e-05
1e-05
1e-05
1e-05
1e-05
1e-05
1e-05
1e-05
1e-05
1e-05
1e-05
1e-05
1e-05
1e-05
1e-05
1e-05
1e-05
1e-05
1e-05
1e-05
1e-05
1e-05
1e-05
1e-05
1e-05
1e-05
1e-05
1e-05
1e-05
1e-05
1e-05
1e-05
1e-05
1e-05
1e-05
1e-05
1e-05
1e-05
1e-05
1e-05
1e-05
1e-05
1e-05
1e-05
1e-05
1e-05
1e-05
2.03829e-05
0.000243983
0.000903309
0.00191583
0.00318779
0.004668
0.0063503
0.00828877
0.0106576
0.0138983
0.0189907
0.0277389
0.0425268
0.0646342
0.0914541
0.115675
0.128658
0.125274
0.106889
0.080556
0.0549523
0.0356988
0.023558
0.0165058
0.0122879
0.00944716
0.00725778
0.00541234
0.00380053
0.00240277
0.00125385
0.000436707
5.32904e-05
1e-05
1e-05
1e-05
1e-05
1e-05
1e-05
1e-05
1e-05
1e-05
1e-05
1e-05
1e-05
1e-05
1e-05
1e-05
1e-05
1e-05
1e-05
1e-05
1e-05
1e-05
1e-05
1e-05
1e-05
1e-05
1e-05
1e-05
1e-05
1e-05
1e-05
1e-05
1e-05
1e-05
1e-05
1e-05
1e-05
1e-05
1e-05
1e-05
1e-05
1e-05
1e-05
1e-05
1e-05
1e-05
1e-05
1e-05
1e-05
1e-05
1e-05
1e-05
1e-05
1e-05
1e-05
1e-05
1e-05
1e-05
1e-05
1e-05
1e-05
1e-05
1e-05
1e-05
1e-05
1e-05
1e-05
1e-05
2.9039e-05
0.000314758
0.00105345
0.00214471
0.00349895
0.00508326
0.00693731
0.00924097
0.0125245
0.018197
0.0296101
0.0533658
0.0984538
0.168894
0.253023
0.32521
0.362147
0.352706
0.299675
0.21953
0.13828
0.077543
0.0418749
0.0239751
0.015379
0.0108807
0.00805749
0.00594225
0.00418765
0.00269055
0.00145417
0.000548295
7.84721e-05
1e-05
1e-05
1e-05
1e-05
1e-05
1e-05
1e-05
1e-05
1e-05
1e-05
1e-05
1e-05
1e-05
1e-05
1e-05
1e-05
1e-05
1e-05
1e-05
1e-05
1e-05
1e-05
1e-05
1e-05
1e-05
1e-05
1e-05
1e-05
1e-05
1e-05
1e-05
1e-05
1e-05
1e-05
1e-05
1e-05
1e-05
1e-05
1e-05
1e-05
1e-05
1e-05
1e-05
1e-05
1e-05
1e-05
1e-05
1e-05
1e-05
1e-05
1e-05
1e-05
1e-05
1e-05
1e-05
1e-05
1e-05
1e-05
1e-05
1e-05
1e-05
1e-05
1e-05
1e-05
1e-05
1e-05
1e-05
3.55234e-05
0.000369305
0.00116653
0.00231589
0.00373556
0.00542334
0.00751173
0.0104708
0.0157307
0.0273422
0.0555418
0.12079
0.245895
0.421277
0.588054
0.694846
0.738392
0.727941
0.660698
0.527642
0.349182
0.188983
0.0890871
0.0414035
0.0214815
0.0130936
0.0089843
0.0064316
0.00450637
0.0029197
0.00161442
0.000639625
0.000101177
1e-05
1e-05
1e-05
1e-05
1e-05
1e-05
1e-05
1e-05
1e-05
1e-05
1e-05
1e-05
1e-05
1e-05
1e-05
1e-05
1e-05
1e-05
1e-05
1e-05
1e-05
1e-05
1e-05
1e-05
1e-05
1e-05
1e-05
1e-05
1e-05
1e-05
1e-05
1e-05
1e-05
1e-05
1e-05
1e-05
1e-05
1e-05
1e-05
1e-05
1e-05
1e-05
1e-05
1e-05
1e-05
1e-05
1e-05
1e-05
1e-05
1e-05
1e-05
1e-05
1e-05
1e-05
1e-05
1e-05
1e-05
1e-05
1e-05
1e-05
1e-05
1e-05
1e-05
1e-05
1e-05
1e-05
1e-05
3.9439e-05
0.000412776
0.00125204
0.00243951
0.00390845
0.00571167
0.00816559
0.012362
0.0217861
0.0468174
0.114052
0.268478
0.511129
0.728844
0.853505
0.910461
0.930182
0.925648
0.893731
0.814638
0.654037
0.41128
0.195456
0.0802013
0.0339834
0.0169871
0.0102599
0.00693123
0.00476965
0.00309733
0.00174138
0.000715489
0.000121862
1e-05
1e-05
1e-05
1e-05
1e-05
1e-05
1e-05
1e-05
1e-05
1e-05
1e-05
1e-05
1e-05
1e-05
1e-05
1e-05
1e-05
1e-05
1e-05
1e-05
1e-05
1e-05
1e-05
1e-05
1e-05
1e-05
1e-05
1e-05
1e-05
1e-05
1e-05
1e-05
1e-05
1e-05
1e-05
1e-05
1e-05
1e-05
1e-05
1e-05
1e-05
1e-05
1e-05
1e-05
1e-05
1e-05
1e-05
1e-05
1e-05
1e-05
1e-05
1e-05
1e-05
1e-05
1e-05
1e-05
1e-05
1e-05
1e-05
1e-05
1e-05
1e-05
1e-05
1e-05
1e-05
1e-05
1e-05
4.74553e-05
0.000464541
0.00133258
0.00253651
0.00403878
0.00598844
0.00904028
0.0154876
0.0329328
0.0844251
0.22405
0.49321
0.757537
0.899821
0.958944
0.981168
0.987955
0.986535
0.97504
0.942057
0.857563
0.668133
0.377464
0.155037
0.0578589
0.0239062
0.0122175
0.0075217
0.00500176
0.00323919
0.00185207
0.000793077
0.000151472
1.00086e-05
1e-05
1e-05
1e-05
1e-05
1e-05
1e-05
1e-05
1e-05
1e-05
1e-05
1e-05
1e-05
1e-05
1e-05
1e-05
1e-05
1e-05
1e-05
1e-05
1e-05
1e-05
1e-05
1e-05
1e-05
1e-05
1e-05
1e-05
1e-05
1e-05
1e-05
1e-05
1e-05
1e-05
1e-05
1e-05
1e-05
1e-05
1e-05
1e-05
1e-05
1e-05
1e-05
1e-05
1e-05
1e-05
1e-05
1e-05
1e-05
1e-05
1e-05
1e-05
1e-05
1e-05
1e-05
1e-05
1e-05
1e-05
1e-05
1e-05
1e-05
1e-05
1e-05
1e-05
1e-05
1e-05
1e-05
8.43788e-05
0.000558537
0.00144019
0.00263437
0.00415398