# vtk DataFile Version 2.0
time_10.vtk
ASCII
DATASET STRUCTURED_GRID
DIMENSIONS 100 100 1
POINTS 10000 float
-0.5 -0.5 0
-0.5 0 0
-0.5 0.5 0
-0.5 1 0
-0.5 1.5 0
-0.5 2 0
-0.5 2.5 0
-0.5 3 0
-0.5 3.5 0
-0.5 4 0
-0.5 4.5 0
-0.5 5 0
-0.5 5.5 0
-0.5 6 0
-0.5 6.5 0
-0.5 7 0
-0.5 7.5 0
-0.5 8 0
-0.5 8.5 0
-0.5 9 0
-0.5 9.5 0
-0.5 10 0
-0.5 10.5 0
-0.5 11 0
-0.5 11.5 0
-0.5 12 0
-0.5 12.5 0
-0.5 13 0
-0.5 13.5 0
-0.5 14 0
-0.5 14.5 0
-0.5 15 0
-0.5 15.5 0
-0.5 16 0
-0.5 16.5 0
-0.5 17 0
-0.5 17.5 0
-0.5 18 0
-0.5 18.5 0
-0.5 19 0
-0.5 19.5 0
-0.5 20 0
-0.5 20.5 0
-0.5 21 0
-0.5 21.5 0
-0.5 22 0
-0.5 22.5 0
-0.5 23 0
-0.5 23.5 0
-0.5 24 0
-0.5 24.5 0
-0.5 25 0
-0.5 25.5 0
-0.5 26 0
-0.5 26.5 0
-0.5 27 0
-0.5 27.5 0
-0.5 28 0
-0.5 28.5 0
-0.5 29 0
-0.5 29.5 0
-0.5 30 0
-0.5 30.5 0
-0.5 31 0
-0.5 31.5 0
-0.5 32 0
-0.5 32.5 0
-0.5 33 0
-0.5 33.5 0
-0.5 34 0
-0.5 34.5 0
-0.5 35 0
-0.5 35.5 0
-0.5 36 0
-0.5 36.5 0
-0.5 37 0
-0.5 37.5 0
-0.5 38 0
-0.5 38.5 0
-0.5 39 0
-0.5 39.5 0
-0.5 40 0
-0.5 40.5 0
-0.5 41 0
-0.5 41.5 0
-0.5 42 0
-0.5 42.5 0
-0.5 43 0
-0.5 43.5 0
-0.5 44 0
-0.5 44.5 0
-0.5 45 0
-0.5 45.5 0
-0.5 46 0
-0.5 46.5 0
-0.5 47 0
-0.5 47.5 0
-0.5 48 0
-0.5 48.5 0
-0.5 49 0
0 -0.5 0
0 0 0
0 0.5 0
0 1 0
0 1.5 0
0 2 0
0 2.5 0
0 3 0
0 3.5 0
0 4 0
0 4.5 0
0 5 0
0 5.5 0
0 6 0
0 6.5 0
0 7 0
0 7.5 0
0 8 0
0 8.5 0
0 9 0
0 9.5 0
0 10 0
0 10.5 0
0 11 0
0 11.5 0
0 12 0
0 12.5 0
0 13 0
0 13.5 0
0 14 0
0 14.5 0
0 15 0
0 15.5 0
0 16 0
0 16.5 0
0 17 0
0 17.5 0
0 18 0
0 18.5 0
0 19 0
0 19.5 0
0 20 0
0 20.5 0
0 21 0
0 21.5 0
0 22 0
0 22.5 0
0 23 0
0 23.5 0
0 24 0
0 24.5 0
0 25 0
0 25.5 0
0 26 0
0 26.5 0
0 27 0
0 27.5 0
0 28 0
0 28.5 0
0 29 0
0 29.5 0
0 30 0
0 30.5 0
0 31 0
0 31.5 0
0 32 0
0 32.5 0
0 33 0
0 33.5 0
0 34 0
0 34.5 0
0 35 0
0 35.5 0
0 36 0
0 36.5 0
0 37 0
0 37.5 0
0 38 0
0 38.5 0
0 39 0
0 39.5 0
0 40 0
0 40.5 0
0 41 0
0 41.5 0
0 42 0
0 42.5 0
0 43 0
0 43.5 0
0 44 0
0 44.5 0
0 45 0
0 45.5 0
0 46 0
0 46.5 0
0 47 0
0 47.5 0
0 48 0
0 48.5 0
0 49 0
0.5 -0.5 0
0.5 0 0
0.5 0.5 0
0.5 1 0
0.5 1.5 0
0.5 2 0
0.5 2.5 0
0.5 3 0
0.5 3.5 0
0.5 4 0
0.5 4.5 0
0.5 5 0
0.5 5.5 0
0.5 6 0
0.5 6.5 0
0.5 7 0
0.5 7.5 0
0.5 8 0
0.5 8.5 0
0.5 9 0
0.5 9.5 0
0.5 10 0
0.5 10.5 0
0.5 11 0
0.5 11.5 0
0.5 12 0
0.5 12.5 0
0.5 13 0
0.5 13.5 0
0.5 14 0
0.5 14.5 0
0.5 15 0
0.5 15.5 0
0.5 16 0
0.5 16.5 0
0.5 17 0
0.5 17.5 0
0.5 18 0
0.5 18.5 0
0.5 19 0
0.5 19.5 0
0.5 20 0
0.5 20.5 0
0.5 21 0
0.5 21.5 0
0.5 22 0
0.5 22.5 0
0.5 23 0
0.5 23.5 0
0.5 24 0
0.5 24.5 0
0.5 25 0
0.5 25.5 0
0.5 26 0
0.5 26.5 0
0.5 27 0
0.5 27.5 0
0.5 28 0
0.5 28.5 0
0.5 29 0
0.5 29.5 0
0.5 30 0
0.5 30.5 0
0.5 31 0
0.5 31.5 0
0.5 32 0
0.5 32.5 0
0.5 33 0
0.5 33.5 0
0.5 34 0
0.5 34.5 0
0.5 35 0
0.5 35.5 0
0.5 36 0
0.5 36.5 0
0.5 37 0
0.5 37.5 0
0.5 38 0
0.5 38.5 0
0.5 39 0
0.5 39.5 0
0.5 40 0
0.5 40.5 0
0.5 41 0
0.5 41.5 0
0.5 42 0
0.5 42.5 0
0.5 43 0
0.5 43.5 0
0.5 44 0
0.5 44.5 0
0.5 45 0
0.5 45.5 0
0.5 46 0
0.5 46.5 0
0.5 47 0
0.5 47.5 0
0.5 48 0
0.5 48.5 0
0.5 49 0
1 -0.5 0
1 0 0
1 0.5 0
1 1 0
1 1.5 0
1 2 0
1 2.5 0
1 3 0
1 3.5 0
1 4 0
1 4.5 0
1 5 0
1 5.5 0
1 6 0
1 6.5 0
1 7 0
1 7.5 0
1 8 0
1 8.5 0
1 9 0
1 9.5 0
1 10 0
1 10.5 0
1 11 0
1 11.5 0
1 12 0
1 12.5 0
1 13 0
1 13.5 0
1 14 0
1 14.5 0
1 15 0
1 15.5 0
1 16 0
1 16.5 0
1 17 0
1 17.5 0
1 18 0
1 18.5 0
1 19 0
1 19.5 0
1 20 0
1 20.5 0
1 21 0
1 21.5 0
1 22 0
1 22.5 0
1 23 0
1 23.5 0
1 24 0
1 24.5 0
1 25 0
1 25.5 0
1 26 0
1 26.5 0
1 27 0
1 27.5 0
1 28 0
1 28.5 0
1 29 0
1 29.5 0
1 30 0
1 30.5 0
1 31 0
1 31.5 0
1 32 0
1 32.5 0
1 33 0
1 33.5 0
1 34 0
1 34.5 0
1 35 0
1 35.5 0
1 36 0
1 36.5 0
1 37 0
1 37.5 0
1 38 0
1 38.5 0
1 39 0
1 39.5 0
1 40 0
1 40.5 0
1 41 0
1 41.5 0
1 42 0
1 42.5 0
1 43 0
1 43.5 0
1 44 0
1 44.5 0
1 45 0
1 45.5 0
1 46 0
1 46.5 0
1 47 0
1 47.5 0
1 48 0
1 48.5 0
1 49 0
1.5 -0.5 0
1.5 0 0
1.5 0.5 0
1.5 1 0
1.5 1.5 0
1.5 2 0
1.5 2.5 0
1.5 3 0
1.5 3.5 0
1.5 4 0
1.5 4.5 0
1.5 5 0
1.5 5.5 0
1.5 6 0
1.5 6.5 0
1.5 7 0
1.5 7.5 0
1.5 8 0
1.5 8.5 0
1.5 9 0
1.5 9.5 0
1.5 10 0
1.5 10.5 0
1.5 11 0
1.5 11.5 0
1.5 12 0
1.5 12.5 0
1.5 13 0
1.5 13.5 0
1.5 14 0
1.5 14.5 0
1.5 15 0
1.5 15.5 0
1.5 16 0
1.5 16.5 0
1.5 17 0
1.5 17.5 0
1.5 18 0
1.5 18.5 0
1.5 19 0
1.5 19.5 0
1.5 20 0
1.5 20.5 0
1.5 21 0
1.5 21.5 0
1.5 22 0
1.5 22.5 0
1.5 23 0
1.5 23.5 0
1.5 24 0
1.5 24.5 0
1.5 25 0
1.5 25.5 0
1.5 26 0
1.5 26.5 0
1.5 27 0
1.5 27.5 0
1.5 28 0
1.5 28.5 0
1.5 29 0
1.5 29.5 0
1.5 30 0
1.5 30.5 0
1.5 31 0
1.5 31.5 0
1.5 32 0
1.5 32.5 0
1.5 33 0
1.5 33.5 0
1.5 34 0
1.5 34.5 0
1.5 35 0
1.5 35.5 0
1.5 36 0
1.5 36.5 0
1.5 37 0
1.5 37.5 0
1.5 38 0
1.5 38.5 0
1.5 39 0
1.5 39.5 0
1.5 40 0
1.5 40.5 0
1.5 41 0
1.5 41.5 0
1.5 42 0
1.5 42.5 0
1.5 43 0
1.5 43.5 0
1.5 44 0
1.5 44.5 0
1.5 45 0
1.5 45.5 0
1.5 46 0
1.5 46.5 0
1.5 47 0
1.5 47.5 0
1.5 48 0
1.5 48.5 0
1.5 49 0
2 -0.5 0
2 0 0
2 0.5 0
2 1 0
2 1.5 0
2 2 0
2 2.5 0
2 3 0
2 3.5 0
2 4 0
2 4.5 0
2 5 0
2 5.5 0
2 6 0
2 6.5 0
2 7 0
2 7.5 0
2 8 0
2 8.5 0
2 9 0
2 9.5 0
2 10 0
2 10.5 0
2 11 0
2 11.5 0
2 12 0
2 12.5 0
2 13 0
2 13.5 0
2 14 0
2 14.5 0
2 15 0
2 15.5 0
2 16 0
2 16.5 0
2 17 0
2 17.5 0
2 18 0
2 18.5 0
2 19 0
2 19.5 0
2 20 0
2 20.5 0
2 21 0
2 21.5 0
2 22 0
2 22.5 0
2 23 0
2 23.5 0
2 24 0
2 24.5 0
2 25 0
2 25.5 0
2 26 0
2 26.5 0
2 27 0
2 27.5 0
2 28 0
2 28.5 0
2 29 0
2 29.5 0
2 30 0
2 30.5 0
2 31 0
2 31.5 0
2 32 0
2 32.5 0
2 33 0
2 33.5 0
2 34 0
2 34.5 0
2 35 0
2 35.5 0
2 36 0
2 36.5 0
2 37 0
2 37.5 0
2 38 0
2 38.5 0
2 39 0
2 39.5 0
2 40 0
2 40.5 0
2 41 0
2 41.5 0
2 42 0
2 42.5 0
2 43 0
2 43.5 0
2 44 0
2 44.5 0
2 45 0
2 45.5 0
2 46 0
2 46.5 0
2 47 0
2 47.5 0
2 48 0
2 48.5 0
2 49 0
2.5 -0.5 0
2.5 0 0
2.5 0.5 0
2.5 1 0
2.5 1.5 0
2.5 2 0
2.5 2.5 0
2.5 3 0
2.5 3.5 0
2.5 4 0
2.5 4.5 0
2.5 5 0
2.5 5.5 0
2.5 6 0
2.5 6.5 0
2.5 7 0
2.5 7.5 0
2.5 8 0
2.5 8.5 0
2.5 9 0
2.5 9.5 0
2.5 10 0
2.5 10.5 0
2.5 11 0
2.5 11.5 0
2.5 12 0
2.5 12.5 0
2.5 13 0
2.5 13.5 0
2.5 14 0
2.5 14.5 0
2.5 15 0
2.5 15.5 0
2.5 16 0
2.5 16.5 0
2.5 17 0
2.5 17.5 0
2.5 18 0
2.5 18.5 0
2.5 19 0
2.5 19.5 0
2.5 20 0
2.5 20.5 0
2.5 21 0
2.5 21.5 0
2.5 22 0
2.5 22.5 0
2.5 23 0
2.5 23.5 0
2.5 24 0
2.5 24.5 0
2.5 25 0
2.5 25.5 0
2.5 26 0
2.5 26.5 0
2.5 27 0
2.5 27.5 0
2.5 28 0
2.5 28.5 0
2.5 29 0
2.5 29.5 0
2.5 30 0
2.5 30.5 0
2.5 31 0
2.5 31.5 0
2.5 32 0
2.5 32.5 0
2.5 33 0
2.5 33.5 0
2.5 34 0
2.5 34.5 0
2.5 35 0
2.5 35.5 0
2.5 36 0
2.5 36.5 0
2.5 37 0
2.5 37.5 0
2.5 38 0
2.5 38.5 0
2.5 39 0
2.5 39.5 0
2.5 40 0
2.5 40.5 0
2.5 41 0
2.5 41.5 0
2.5 42 0
2.5 42.5 0
2.5 43 0
2.5 43.5 0
2.5 44 0
2.5 44.5 0
2.5 45 0
2.5 45.5 0
2.5 46 0
2.5 46.5 0
2.5 47 0
2.5 47.5 0
2.5 48 0
2.5 48.5 0
2.5 49 0
3 -0.5 0
3 0 0
3 0.5 0
3 1 0
3 1.5 0
3 2 0
3 2.5 0
3 3 0
3 3.5 0
3 4 0
3 4.5 0
3 5 0
3 5.5 0
3 6 0
3 6.5 0
3 7 0
3 7.5 0
3 8 0
3 8.5 0
3 9 0
3 9.5 0
3 10 0
3 10.5 0
3 11 0
3 11.5 0
3 12 0
3 12.5 0
3 13 0
3 13.5 0
3 14 0
3 14.5 0
3 15 0
3 15.5 0
3 16 0
3 16.5 0
3 17 0
3 17.5 0
3 18 0
3 18.5 0
3 19 0
3 19.5 0
3 20 0
3 20.5 0
3 21 0
3 21.5 0
3 22 0
3 22.5 0
3 23 0
3 23.5 0
3 24 0
3 24.5 0
3 25 0
3 25.5 0
3 26 0
3 26.5 0
3 27 0
3 27.5 0
3 28 0
3 28.5 0
3 29 0
3 29.5 0
3 30 0
3 30.5 0
3 31 0
3 31.5 0
3 32 0
3 32.5 0
3 33 0
3 33.5 0
3 34 0
3 34.5 0
3 35 0
3 35.5 0
3 36 0
3 36.5 0
3 37 0
3 37.5 0
3 38 0
3 38.5 0
3 39 0
3 39.5 0
3 40 0
3 40.5 0
3 41 0
3 41.5 0
3 42 0
3 42.5 0
3 43 0
3 43.5 0
3 44 0
3 44.5 0
3 45 0
3 45.5 0
3 46 0
3 46.5 0
3 47 0
3 47.5 0
3 48 0
3 48.5 0
3 49 0
3.5 -0.5 0
3.5 0 0
3.5 0.5 0
3.5 1 0
3.5 1.5 0
3.5 2 0
3.5 2.5 0
3.5 3 0
3.5 3.5 0
3.5 4 0
3.5 4.5 0
3.5 5 0
3.5 5.5 0
3.5 6 0
3.5 6.5 0
3.5 7 0
3.5 7.5 0
3.5 8 0
3.5 8.5 0
3.5 9 0
3.5 9.5 0
3.5 10 0
3.5 10.5 0
3.5 11 0
3.5 11.5 0
3.5 12 0
3.5 12.5 0
3.5 13 0
3.5 13.5 0
3.5 14 0
3.5 14.5 0
3.5 15 0
3.5 15.5 0
3.5 16 0
3.5 16.5 0
3.5 17 0
3.5 17.5 0
3.5 18 0
3.5 18.5 0
3.5 19 0
3.5 19.5 0
3.5 20 0
3.5 20.5 0
3.5 21 0
3.5 21.5 0
3.5 22 0
3.5 22.5 0
3.5 23 0
3.5 23.5 0
3.5 24 0
3.5 24.5 0
3.5 25 0
3.5 25.5 0
3.5 26 0
3.5 26.5 0
3.5 27 0
3.5 27.5 0
3.5 28 0
3.5 28.5 0
3.5 29 0
3.5 29.5 0
3.5 30 0
3.5 30.5 0
3.5 31 0
3.5 31.5 0
3.5 32 0
3.5 32.5 0
3.5 33 0
3.5 33.5 0
3.5 34 0
3.5 34.5 0
3.5 35 0
3.5 35.5 0
3.5 36 0
3.5 36.5 0
3.5 37 0
3.5 37.5 0
3.5 38 0
3.5 38.5 0
3.5 39 0
3.5 39.5 0
3.5 40 0
3.5 40.5 0
3.5 41 0
3.5 41.5 0
3.5 42 0
3.5 42.5 0
3.5 43 0
3.5 43.5 0
3.5 44 0
3.5 44.5 0
3.5 45 0
3.5 45.5 0
3.5 46 0
3.5 46.5 0
3.5 47 0
3.5 47.5 0
3.5 48 0
3.5 48.5 0
3.5 49 0
4 -0.5 0
4 0 0
4 0.5 0
4 1 0
4 1.5 0
4 2 0
4 2.5 0
4 3 0
4 3.5 0
4 4 0
4 4.5 0
4 5 0
4 5.5 0
4 6 0
4 6.5 0
4 7 0
4 7.5 0
4 8 0
4 8.5 0
4 9 0
4 9.5 0
4 10 0
4 10.5 0
4 11 0
4 11.5 0
4 12 0
4 12.5 0
4 13 0
4 13.5 0
4 14 0
4 14.5 0
4 15 0
4 15.5 0
4 16 0
4 16.5 0
4 17 0
4 17.5 0
4 18 0
4 18.5 0
4 19 0
4 19.5 0
4 20 0
4 20.5 0
4 21 0
4 21.5 0
4 22 0
4 22.5 0
4 23 0
4 23.5 0
4 24 0
4 24.5 0
4 25 0
4 25.5 0
4 26 0
4 26.5 0
4 27 0
4 27.5 0
4 28 0
4 28.5 0
4 29 0
4 29.5 0
4 30 0
4 30.5 0
4 31 0
4 31.5 0
4 32 0
4 32.5 0
4 33 0
4 33.5 0
4 34 0
4 34.5 0
4 35 0
4 35.5 0
4 36 0
4 36.5 0
4 37 0
4 37.5 0
4 38 0
4 38.5 0
4 39 0
4 39.5 0
4 40 0
4 40.5 0
4 41 0
4 41.5 0
4 42 0
4 42.5 0
4 43 0
4 43.5 0
4 44 0
4 44.5 0
4 45 0
4 45.5 0
4 46 0
4 46.5 0
4 47 0
4 47.5 0
4 48 0
4 48.5 0
4 49 0
4.5 -0.5 0
4.5 0 0
4.5 0.5 0
4.5 1 0
4.5 1.5 0
4.5 2 0
4.5 2.5 0
4.5 3 0
4.5 3.5 0
4.5 4 0
4.5 4.5 0
4.5 5 0
4.5 5.5 0
4.5 6 0
4.5 6.5 0
4.5 7 0
4.5 7.5 0
4.5 8 0
4.5 8.5 0
4.5 9 0
4.5 9.5 0
4.5 10 0
4.5 10.5 0
4.5 11 0
4.5 11.5 0
4.5 12 0
4.5 12.5 0
4.5 13 0
4.5 13.5 0
4.5 14 0
4.5 14.5 0
4.5 15 0
4.5 15.5 0
4.5 16 0
4.5 16.5 0
4.5 17 0
4.5 17.5 0
4.5 18 0
4.5 18.5 0
4.5 19 0
4.5 19.5 0
4.5 20 0
4.5 20.5 0
4.5 21 0
4.5 21.5 0
4.5 22 0
4.5 22.5 0
4.5 23 0
4.5 23.5 0
4.5 24 0
4.5 24.5 0
4.5 25 0
4.5 25.5 0
4.5 26 0
4.5 26.5 0
4.5 27 0
4.5 27.5 0
4.5 28 0
4.5 28.5 0
4.5 29 0
4.5 29.5 0
4.5 30 0
4.5 30.5 0
4.5 31 0
4.5 31.5 0
4.5 32 0
4.5 32.5 0
4.5 33 0
4.5 33.5 0
4.5 34 0
4.5 34.5 0
4.5 35 0
4.5 35.5 0
4.5 36 0
4.5 36.5 0
4.5 37 0
4.5 37.5 0
4.5 38 0
4.5 38.5 0
4.5 39 0
4.5 39.5 0
4.5 40 0
4.5 40.5 0
4.5 41 0
4.5 41.5 0
4.5 42 0
4.5 42.5 0
4.5 43 0
4.5 43.5 0
4.5 44 0
4.5 44.5 0
4.5 45 0
4.5 45.5 0
4.5 46 0
4.5 46.5 0
4.5 47 0
4.5 47.5 0
4.5 48 0
4.5 48.5 0
4.5 49 0
5 -0.5 0
[...]
POINT_DATA 10000
SCALARS CON float 1
LOOKUP_TABLE default
1e-05
1e-05
1e-05
1e-05
1e-05
1e-05
1e-05
1e-05
1e-05
1e-05
1e-05
1e-05
1e-05
1e-05
1e-05
1e-05
1e-05
1e-05
1e-05
1e-05
1e-05
1e-05
1e-05
1e-05
1e-05
1e-05
1e-05
1e-05
1e-05
1e-05
1e-05
1e-05
1e-05
1e-05
1e-05
1e-05
1e-05
1e-05
1e-05
1e-05
1e-05
1e-05
1e-05
1e-05
1e-05
1e-05
1e-05
1e-05
1e-05
1e-05
1e-05
1e-05
1e-05
1e-05
1e-05
1e-05
1e-05
1e-05
1e-05
1e-05
1e-05
1e-05
1e-05
1e-05
1e-05
1e-05
1e-05
1e-05
1e-05
1e-05
1e-05
1e-05
1e-05
1e-05
1e-05
1e-05
1e-05
1e-05
1e-05
1e-05
1e-05
1e-05
1e-05
1e-05
1e-05
1e-05
1e-05
1e-05
1e-05
1e-05
1e-05
1e-05
1e-05
1e-05
1e-05
1e-05
1e-05
1e-05
1e-05
1e-05
1e-05
1e-05
1e-05
1e-05
1e-05
1e-05
1e-05
1e-05
1e-05
1e-05
1e-05
1e-05
1e-05
1e-05
1e-05
1e-05
1e-05
1e-05
1e-05
1e-05
1e-05
1e-05
1e-05
1e-05
1e-05
1e-05
1e-05
1e-05
1e-05
1e-05
1e-05
1e-05
1e-05
1e-05
1e-05
1e-05
1e-05
1e-05
1e-05
1e-05
1e-05
1e-05
1e-05
1e-05
1e-05
1e-05
1e-05
1e-05
1e-05
1e-05
1e-05
1e-05
1e-05
1e-05
1e-05
1e-05
1e-05
1e-05
1e-05
1e-05
1e-05
1e-05
1e-05
1e-05
1e-05
1e-05
1e-05
1e-05
1e-05
1e-05
1e-05
1e-05
1e-05
1e-05
1e-05
1e-05
1e-05
1e-05
1e-05
1e-05
1e-05
1e-05
1e-05
1e-05
1e-05
1e-05
1e-05
1e-05
1e-05
1e-05
1e-05
1e-05
1e-05
1e-05
1e-05
1e-05
1e-05
1e-05
1e-05
1e-05
1e-05
1e-05
1e-05
1e-05
1e-05
1e-05
1e-05
1e-05
1e-05
1e-05
1e-05
1e-05
1e-05
1e-05
1e-05
1e-05
1e-05
1e-05
1e-05
1e-05
1e-05
1e-05
1e-05
1e-05
1e-05
1e-05
1e-05
1e-05
1e-05
1e-05
1e-05
1e-05
1e-05
1e-05
1e-05
1e-05
1e-05
1e-05
1e-05
1e-05
1e-05
1e-05
1e-05
1e-05
1e-05
1e-05
1e-05
1e-05
1e-05
1e-05
1e-05
1e-05
1e-05
1e-05
1e-05
1e-05
1e-05
1e-05
1e-05
1e-05
1e-05
1e-05
1e-05
1e-05
1e-05
1e-05
1e-05
1e-05
1e-05
1e-05
1e-05
1e-05
1e-05
1e-05
1e-05
1e-05
1e-05
1e-05
1e-05
1e-05
1e-05
1e-05
1e-05
1e-05
1e-05
1e-05
1e-05
1e-05
1e-05
1e-05
1e-05
1e-05
1e-05
1e-05
1e-05
1e-05
1e-05
1e-05
1e-05
1e-05
1e-05
1e-05
1e-05
1e-05
1e-05
1e-05
1e-05
1e-05
1e-05
1e-05
1e-05
1e-05
1e-05
1e-05
1e-05
1e-05
1e-05
1e-05
1e-05
1e-05
1e-05
1e-05
1e-05
1e-05
1e-05
1e-05
1e-05
1e-05
1e-05
1e-05
1e-05
1e-05
1e-05
1e-05
1e-05
1e-05
1e-05
1e-05
1e-05
1e-05
1e-05
1e-05
1e-05
1e-05
1e-05
1e-05
1e-05
1e-05
1e-05
1e-05
1e-05
1e-05
1e-05
1e-05
1e-05
1e-05
1e-05
1e-05
1e-05
1e-05
1e-05
1e-05
1e-05
1e-05
1e-05
1e-05
1e-05
1e-05
1e-05
1e-05
1e-05
1e-05
1e-05
1e-05
1e-05
1e-05
1e-05
1e-05
1e-05
1e-05
1e-05
1e-05
1e-05
1e-05
1e-05
1e-05
1e-05
1e-05
1e-05
1e-05
1e-05
1e-05
1e-05
1e-05
1e-05
1e-05
1e-05
1e-05
1e-05
1e-05
1e-05
1e-05
1e-05
1e-05
1e-05
1e-05
1e-05
1e-05
1e-05
1e-05
1e-05
1e-05
1e-05
1e-05
1e-05
1e-05
1e-05
1e-05
1e-05
1e-05
1e-05
1e-05
1e-05
1e-05
1e-05
1e-05
1e-05
1e-05
1e-05
1e-05
1e-05
1e-05
1e-05
1e-05
1e-05
1e-05
1e-05
1e-05
1e-05
1e-05
1e-05
1e-05
1e-05
1e-05
1e-05
1e-05
1e-05
1e-05
1e-05
1e-05
1e-05
1e-05
1e-05
1e-05
1e-05
1e-05
1e-05
1e-05
1e-05
1e-05
1e-05
1e-05
1e-05
1e-05
1e-05
1e-05
1e-05
1e-05
1e-05
1e-05
1e-05
1e-05
1e-05
1e-05
1e-05
1e-05
1e-05
1e-05
1e-05
1e-05
1e-05
1e-05
1e-05
1e-05
1e-05
1e-05
1e-05
1e-05
1e-05
1e-05
1e-05
1e-05
1e-05
1e-05
1e-05
1e-05
1e-05
1e-05
1e-05
1e-05
1e-05
1e-05
1e-05
1e-05
1e-05
1e-05
1e-05
1e-05
1e-05
1e-05
1e-05
1e-05
1e-05
1e-05
1e-05
1e-05
1e-05
1e-05
1e-05
1e-05
1e-05
1e-05
1e-05
1e-05
1e-05
1e-05
1.08764e-05
1.65272e-05
2.57163e-05
3.43212e-05
3.78397e-05
3.43205e-05
2.57153e-05
1.65263e-05
1.0876e-05
1e-05
1e-05
1e-05
1e-05
1e-05
1e-05
1e-05
1e-05
1e-05
1e-05
1e-05
1e-05
1e-05
1e-05
1e-05
1e-05
1e-05
1e-05
1e-05
1e-05
1e-05
1e-05
1e-05
1e-05
1e-05
1e-05
1e-05
1e-05
1e-05
1e-05
1e-05
1e-05
1e-05
1e-05
1e-05
1e-05
1e-05
1e-05
1e-05
1e-05
1e-05
1e-05
1e-05
1e-05
1e-05
1e-05
1e-05
1e-05
1e-05
1e-05
1e-05
1e-05
1e-05
1e-05
1e-05
1e-05
1e-05
1e-05
1e-05
1e-05
1e-05
1e-05
1e-05
1e-05
1e-05
1e-05
1e-05
1e-05
1e-05
1e-05
1e-05
1e-05
1e-05
1e-05
1e-05
1e-05
1e-05
1e-05
1e-05
1e-05
1e-05
1e-05
1e-05
1e-05
1e-05
1e-05
1e-05
1.10702e-05
2.73675e-05
7.0485e-05
0.00014993
0.000268799
0.000411323
0.000544844
0.000637833
0.00067089
0.000637774
0.000544735
0.000411185
0.000268661
0.000149818
7.04089e-05
2.73263e-05
1.10588e-05
1e-05
1e-05
1e-05
1e-05
1e-05
1e-05
1e-05
1e-05
1e-05
1e-05
1e-05
1e-05
1e-05
1e-05
1e-05
1e-05
1e-05
1e-05
1e-05
1e-05
1e-05
1e-05
1e-05
1e-05
1e-05
1e-05
1e-05
1e-05
1e-05
1e-05
1e-05
1e-05
1e-05
1e-05
1e-05
1e-05
1e-05
1e-05
1e-05
1e-05
1e-05
1e-05
1e-05
1e-05
1e-05
1e-05
1e-05
1e-05
1e-05
1e-05
1e-05
1e-05
1e-05
1e-05
1e-05
1e-05
1e-05
1e-05
1e-05
1e-05
1e-05
1e-05
1e-05
1e-05
1e-05
1e-05
1e-05
1e-05
1e-05
1e-05
1e-05
1e-05
1e-05
1e-05
1e-05
1e-05
1e-05
1e-05
1e-05
1e-05
1.0005e-05
2.81568e-05
0.000100693
0.000268755
0.000544919
0.0008751
0.00120517
0.00150798
0.00176807
0.00196983
0.00209799
0.00214186
0.00209772
0.00196932
0.00176736
0.00150715
0.00120429
0.000874267
0.000544221
0.000268285
0.000100448
2.80534e-05
1.0003e-05
1e-05
1e-05
1e-05
1e-05
1e-05
1e-05
1e-05
1e-05
1e-05
1e-05
1e-05
1e-05
1e-05
1e-05
1e-05
1e-05
1e-05
1e-05
1e-05
1e-05
1e-05
1e-05
1e-05
1e-05
1e-05
1e-05
1e-05
1e-05
1e-05
1e-05
1e-05
1e-05
1e-05
1e-05
1e-05
1e-05
1e-05
1e-05
1e-05
1e-05
1e-05
1e-05
1e-05
1e-05
1e-05
1e-05
1e-05
1e-05
1e-05
1e-05
1e-05
1e-05
1e-05
1e-05
1e-05
1e-05
1e-05
1e-05
1e-05
1e-05
1e-05
1e-05
1e-05
1e-05
1e-05
1e-05
1e-05
1e-05
1e-05
1e-05
1e-05
1e-05
1e-05
1e-05
1e-05
1.01869e-05
4.34372e-05
0.000181233
0.000482095
0.000894457
0.00139166
0.00197651
0.00262539
0.00328677
0.00389136
0.00438132
0.00473075
0.004937
0.00500474
0.00493645
0.00472975
0.00438001
0.00388994
0.00328539
0.00262413
0.00197546
0.00139085
0.00089384
0.000481572
0.00018086
4.32643e-05
1.01683e-05
1e-05
1e-05
1e-05
1e-05
1e-05
1e-05
1e-05
1e-05
1e-05
1e-05
1e-05
1e-05
1e-05
1e-05
1e-05
1e-05
1e-05
1e-05
1e-05
1e-05
1e-05
1e-05
1e-05
1e-05
1e-05
1e-05
1e-05
1e-05
1e-05
1e-05
1e-05
1e-05
1e-05
1e-05
1e-05
1e-05
1e-05
1e-05
1e-05
1e-05
1e-05
1e-05
1e-05
1e-05
1e-05
1e-05
1e-05
1e-05
1e-05
1e-05
1e-05
1e-05
1e-05
1e-05
1e-05
1e-05
1e-05
1e-05
1e-05
1e-05
1e-05
1e-05
1e-05
1e-05
1e-05
1e-05
1e-05
1e-05
1e-05
1e-05
1e-05
1e-05
3.36456e-05
0.000186009
0.000538305
0.0010405
0.00171103
0.00257521
0.00368314
0.00510355
0.00689465
0.00899102
0.0110775
0.0128037
0.0140108
0.0147004
0.0149221
0.0147
0.0140103
0.0128037
0.0110786
0.0089932
0.00689724
0.0051062
0.00368591
0.002578
0.00171357
0.00104247
0.000539332
0.000186153
3.35508e-05
1e-05
1e-05
1e-05
1e-05
1e-05
1e-05
1e-05
1e-05
1e-05
1e-05
1e-05
1e-05
1e-05
1e-05
1e-05
1e-05
1e-05
1e-05
1e-05
1e-05
1e-05
1e-05
1e-05
1e-05
1e-05
1e-05
1e-05
1e-05
1e-05
1e-05
1e-05
1e-05
1e-05
1e-05
1e-05
1e-05
1e-05
1e-05
1e-05
1e-05
1e-05
1e-05
1e-05
1e-05
1e-05
1e-05
1e-05
1e-05
1e-05
1e-05
1e-05
1e-05
1e-05
1e-05
1e-05
1e-05
1e-05
1e-05
1e-05
1e-05
1e-05
1e-05
1e-05
1e-05
1e-05
1e-05
1e-05
1e-05
1e-05
1.22628e-05
0.000105099
0.000427467
0.000952286
0.00169325
0.00272308
0.00424031
0.006575
0.0101767
0.0155042
0.0230778
0.0328075
0.0428774
0.0511979
0.056924
0.0601429
0.061169
0.0601448
0.0569297
0.0512103
0.0428984
0.0328349
0.0231052
0.0155281
0.0101973
0.00659237
0.00425512
0.00273571
0.00170335
0.000959168
0.000430815
0.000105741
1.22328e-05
1e-05
1e-05
1e-05
1e-05
1e-05
1e-05
1e-05
1e-05
1e-05
1e-05
1e-05
1e-05
1e-05
1e-05
1e-05
1e-05
1e-05
1e-05
1e-05
1e-05
1e-05
1e-05
1e-05
1e-05
1e-05
1e-05
1e-05
1e-05
1e-05
1e-05
1e-05
1e-05
1e-05
1e-05
1e-05
1e-05
1e-05
1e-05
1e-05
1e-05
1e-05
1e-05
1e-05
1e-05
1e-05
1e-05
1e-05
1e-05
1e-05
1e-05
1e-05
1e-05
1e-05
1e-05
1e-05
1e-05
1e-05
1e-05
1e-05
1e-05
1e-05
1e-05
1e-05
1e-05
1e-05
1e-05
2.18397e-05
0.000200617
0.00065895
0.00136104
0.00236388
0.00392602
0.00664673
0.011657
0.0207551
0.036334
0.0604079
0.0956935
0.142059
0.188898
0.225514
0.249391
0.262314
0.266358
0.262326
0.249423
0.225581
0.189012
0.14221
0.0958414
0.0605291
0.0364295
0.0208238
0.0117057
0.00668382
0.00395649
0.00238877
0.00137921
0.000669384
0.000204093
2.20606e-05
1e-05
1e-05
1e-05
1e-05
1e-05
1e-05
1e-05
1e-05
1e-05
1e-05
1e-05
1e-05
1e-05
1e-05
1e-05
1e-05
1e-05
1e-05
1e-05
1e-05
1e-05
1e-05
1e-05
1e-05
1e-05
1e-05
1e-05
1e-05
1e-05
1e-05
1e-05
1e-05
1e-05
1e-05
1e-05
1e-05
1e-05
1e-05
1e-05
1e-05
1e-05
1e-05
1e-05
1e-05
1e-05
1e-05
1e-05
1e-05
1e-05
1e-05
1e-05
1e-05
1e-05
1e-05
1e-05
1e-05
1e-05
1e-05
1e-05
1e-05
1e-05
1e-05
1e-05
1e-05
2.75001e-05
0.000264853
0.000824999
0.00168358
0.00297345
0.00523943
0.00987672
0.0198722
0.0406635
0.0803831
0.148683
0.246945
0.377516
0.529647
0.651865
0.721862
0.755719
0.770403
0.774498
0.770417
0.755764
0.721981
0.652137
0.530119
0.378058
0.247423
0.149077
0.080643
0.0408115
0.0199565
0.00993476
0.00528851
0.00301604
0.00171639
0.000845206
0.000272949
2.83215e-05
1e-05
1e-05
1e-05
1e-05
1e-05
1e-05
1e-05
1e-05
1e-05
1e-05
1e-05
1e-05
1e-05
1e-05
1e-05
1e-05
1e-05
1e-05
1e-05
1e-05
1e-05
1e-05
1e-05
1e-05
1e-05
1e-05
1e-05
1e-05
1e-05
1e-05
1e-05
1e-05
1e-05
1e-05
1e-05
1e-05
1e-05
1e-05
1e-05
1e-05
1e-05
1e-05
1e-05
1e-05
1e-05
1e-05
1e-05
1e-05
1e-05
1e-05
1e-05
1e-05
1e-05
1e-05
1e-05
1e-05
1e-05
1e-05
1e-05
1e-05
1e-05
1e-05
2.18407e-05
0.000264858
0.000885775
0.00186217
0.00340984
0.00642992
0.0135043
0.0309292
0.071717
0.156694
0.304987
0.514857
0.701902
0.815149
0.882179
0.921054
0.941018
0.950281
0.95418
0.955245
0.954183
0.950291
0.94105
0.921135
0.882354
0.81549
0.70256
0.515866
0.305802
0.157127
0.071878
0.0309815
0.0135439
0.00648129
0.00346479
0.00190811
0.000915451
0.000277373
2.30695e-05
1e-05
1e-05
1e-05
1e-05
1e-05
1e-05
1e-05
1e-05
1e-05
1e-05
1e-05
1e-05
1e-05
1e-05
1e-05
1e-05
1e-05
1e-05
1e-05
1e-05
1e-05
1e-05
1e-05
1e-05
1e-05
1e-05
1e-05
1e-05
1e-05
1e-05
1e-05
1e-05
1e-05
1e-05
1e-05
1e-05
1e-05
1e-05
1e-05
1e-05
1e-05
1e-05
1e-05
1e-05
1e-05
1e-05
1e-05
1e-05
1e-05
1e-05
1e-05
1e-05
1e-05
1e-05
1e-05
1e-05
1e-05
1e-05
1e-05
1e-05
1.22639e-05
0.000200628
0.000825001
0.00186214
0.00356965
0.00715587
0.0164949
0.0422446
0.108922
0.256215
0.499349
0.730354
0.86313
0.929979
0.961878
0.977972
0.986416
0.990579
0.992453
0.993209
0.993408
0.993209
0.992453
0.990583
0.986432
0.978014
0.961974
0.930195
0.863562
0.731042
0.50005
0.256331
0.108687
0.042035
0.0164201
0.0071747
0.00362306
0.00191424
0.000860264
0.000215113
1.30859e-05
1e-05
1e-05
1e-05
1e-05
1e-05
1e-05
1e-05
1e-05
1e-05
1e-05
1e-05
1e-05
1e-05
1e-05
1e-05
1e-05
1e-05
1e-05
1e-05
1e-05
1e-05
1e-05
1e-05
1e-05
1e-05
1e-05
1e-05
1e-05
1e-05
1e-05
1e-05
1e-05
1e-05
1e-05
1e-05
1e-05
1e-05
1e-05
1e-05
1e-05
1e-05
1e-05
1e-05
1e-05
1e-05
1e-05
1e-05
1e-05
1e-05
1e-05
1e-05
1e-05
1e-05
1e-05
1e-05
1e-05
1e-05
1e-05
1e-05
0.000105111
0.000658952
0.0016835
0.00340966
0.00715565
0.0176678
0.0495732
0.139964
0.346576
0.642107
0.839787
0.932074
0.970792
0.987183
0.994223
0.997338
0.998797
0.999454
0.999713
0.999797
0.999814
0.999796
0.999712
0.999453
0.998799
0.997346
0.994249
0.987245
0.97092
0.93228
0.839929
0.641529
0.344899
0.138372
0.0487144
0.0173608
0.00710501
0.00344417
0.00173154
0.000693988
0.000117389
1e-05
1e-05
1e-05
1e-05
1e-05
1e-05
1e-05
1e-05
1e-05
1e-05
1e-05
1e-05
1e-05
1e-05
1e-05
1e-05
1e-05
1e-05
1e-05
1e-05
1e-05
1e-05
1e-05
1e-05
1e-05
1e-05
1e-05
1e-05
1e-05
1e-05
1e-05
1e-05
1e-05
1e-05
1e-05
1e-05
1e-05
1e-05
1e-05
1e-05
1e-05
1e-05
1e-05
1e-05
1e-05
1e-05
1e-05
1e-05
1e-05
1e-05
1e-05
1e-05
1e-05
1e-05
1e-05
1e-05
1e-05
1e-05
3.36542e-05
0.000427471
0.00136092
0.00297312
0.00642934
0.016494
0.049572
0.152067
0.397879
0.713704
0.890485
0.96048
0.986106
0.995391
0.998677
0.999771
0.9999
0.9999
0.9999
0.9999
0.9999
0.9999
0.9999
0.9999
0.9999
0.9999
0.9999
0.999777
0.998696
0.995437
0.986176
0.960479
0.889889
0.710858
0.392131
0.147917
0.0477699
0.0159085
0.00629315
0.00297467
0.00139601
0.000458144
4.03242e-05
1e-05
1e-05
1e-05
1e-05
1e-05
1e-05
1e-05
1e-05
1e-05
1e-05
1e-05
1e-05
1e-05
1e-05
1e-05
1e-05
1e-05
1e-05
1e-05
1e-05
1e-05
1e-05
1e-05
1e-05
1e-05
1e-05
1e-05
1e-05
1e-05
1e-05
1e-05
1e-05
1e-05
1e-05
1e-05
1e-05
1e-05
1e-05
1e-05
1e-05
1e-05
1e-05
1e-05
1e-05
1e-05
1e-05
1e-05
1e-05
1e-05
1e-05
1e-05
1e-05
1e-05
1e-05
1e-05
1e-05
1.01883e-05
0.00018602
0.000952153
0.00236346
0.00523864
0.013503
0.042242
0.139959
0.397873
0.734952
0.909797
0.97196
0.991965
0.998129
0.999796
0.9999
0.9999
0.9999
0.999869
0.999815
0.999778
0.99976
0.999755
0.99976
0.999778
0.999815
0.999869
0.9999
0.9999
0.9999
0.999813
0.998161
0.991977
0.971674
0.90802
0.72817
0.385698
0.132818
0.0396474
0.0127204
0.00502634
0.00232539
0.000970501
0.000208971
1.13345e-05
1e-05
1e-05
1e-05
1e-05
1e-05
1e-05
1e-05
1e-05
1e-05
1e-05
1e-05
1e-05
1e-05
1e-05
1e-05
1e-05
1e-05
1e-05
1e-05
1e-05
1e-05
1e-05
1e-05
1e-05
1e-05
1e-05
1e-05
1e-05
1e-05
1e-05
1e-05
1e-05
1e-05
1e-05
1e-05
1e-05
1e-05
1e-05
1e-05
1e-05
1e-05
1e-05
1e-05
1e-05
1e-05
1e-05
1e-05
1e-05
1e-05
1e-05
1e-05
1e-05
1e-05
1e-05
1e-05
4.34492e-05
0.000538194
0.00169279
0.00392514
0.00987538
0.0309269
0.108916
0.346562
0.713694
0.909795
0.975032
0.994008
0.998994
0.9999
0.9999
0.999883
0.999804
0.999748
0.999695
0.999644
0.999608
0.999589
0.999583
0.999589
0.999608
0.999644
0.999695
0.999748
0.999803
0.999881
0.9999
0.9999
0.99901
0.993916
0.974205
0.905746
0.699806
0.32696
0.100044
0.0281471
0.00904011
0.00365607
0.00162006
0.000545358
5.37914e-05
1e-05
1e-05
1e-05
1e-05
1e-05
1e-05
1e-05
1e-05
1e-05
1e-05
1e-05
1e-05
1e-05
1e-05
1e-05
1e-05
1e-05
1e-05
1e-05
1e-05
1e-05
1e-05
1e-05
1e-05
1e-05
1e-05
1e-05
1e-05
1e-05
1e-05
1e-05
1e-05
1e-05
1e-05
1e-05
1e-05
1e-05
1e-05
1e-05
1e-05
1e-05
1e-05
1e-05
1e-05
1e-05
1e-05
1e-05
1e-05
1e-05
1e-05
1e-05
1e-05
1e-05
1e-05
1.00052e-05
0.000181194
0.00104009
0.00272221
0.00664553
0.019871
0.0717154
0.256207
0.642093
0.890479
0.971958
0.994008
0.999206
0.9999
0.9999
0.999815
0.999735
0.999649
0.999581
0.999526
0.999481
0.99945
0.999433
0.999428
0.999433
0.99945
0.999481
0.999526
0.999581
0.999649
0.999733
0.999815
0.9999
0.9999
0.999188
0.993661
0.969914
0.881585
0.615398
0.232582
0.0636254
0.017496
0.00584847
0.00241683
0.000953867
0.000190419
1.1122e-05
1e-05
1e-05
1e-05
1e-05
1e-05
1e-05
1e-05
1e-05
1e-05
1e-05
1e-05
1e-05
1e-05
1e-05
1e-05
1e-05
1e-05
1e-05
1e-05
1e-05
1e-05
1e-05
1e-05
1e-05
1e-05
1e-05
1e-05
1e-05
1e-05
1e-05
1e-05
1e-05
1e-05
1e-05
1e-05
1e-05
1e-05
1e-05
1e-05
1e-05
1e-05
1e-05
1e-05
1e-05
1e-05
1e-05
1e-05
1e-05
1e-05
1e-05
1e-05
1e-05
1e-05
2.81572e-05
0.000481801
0.00171024
0.00423923
0.0116564
0.0406658
0.156703
0.499352
0.839783
0.960477
0.991964
0.998994
0.9999
0.9999
0.999801
0.999686
0.999586
0.999501
0.999434
0.999382
0.999343
0.999317
0.999303
0.999298
0.999303
0.999317
0.999343
0.999382
0.999434
0.999501
0.999586
0.999686
0.999801
0.9999
0.9999
0.998869
0.990946
0.955628
0.820912
0.457411
0.137247
0.0350032
0.00984091
0.00349199
0.00140286
0.000416925
3.35093e-05
1e-05
1e-05
1e-05
1e-05
1e-05
1e-05
1e-05
1e-05
1e-05
1e-05
1e-05
1e-05
1e-05
1e-05
1e-05
1e-05
1e-05
1e-05
1e-05
1e-05
1e-05
1e-05
1e-05
1e-05
1e-05
1e-05
1e-05
1e-05
1e-05
1e-05
1e-05
1e-05
1e-05
1e-05
1e-05
1e-05
1e-05
1e-05
1e-05
1e-05
1e-05
1e-05
1e-05
1e-05
1e-05
1e-05
1e-05
1e-05
1e-05
1e-05
1e-05
1e-05
1e-05
0.000100616
0.000893824
0.00257424
0.00657457
0.0207584
0.0804002
0.305034
0.730376
0.932076
0.986105
0.998128
0.9999
0.9999
0.999801
0.999675
0.999555
0.999455
0.999375
0.999313
0.999267
0.999234
0.999213
0.9992
0.999197
0.9992
0.999213
0.999234
0.999267
0.999313
0.999375
0.999455
0.999556
0.999676
0.999802
0.9999
0.9999
0.997606
0.98346
0.921253
0.695234
0.268772
0.0690567
0.0172992
0.00513642
0.00188281
0.000646338
8.80864e-05
1e-05
1e-05
1e-05
1e-05
1e-05
1e-05
1e-05
1e-05
1e-05
1e-05
1e-05
1e-05
1e-05
1e-05
1e-05
1e-05
1e-05
1e-05
1e-05
1e-05
1e-05
1e-05
1e-05
1e-05
1e-05
1e-05
1e-05
1e-05
1e-05
1e-05
1e-05
1e-05
1e-05
1e-05
1e-05
1e-05
1e-05
1e-05
1e-05
1e-05
1e-05
1e-05
1e-05
1e-05
1e-05
1e-05
1e-05
1e-05
1e-05
1e-05
1e-05
1e-05
1.10632e-05
0.00026839
0.00139082
0.00368263
0.010179
0.0363488
0.148741
0.514967
0.863161
0.970796
0.995391
0.999796
0.9999
0.999816
0.999686
0.999555
0.99944
0.999346
0.999273
0.999219
0.99918
0.999153
0.999135
0.999125
0.999122
0.999125
0.999135
0.999153
0.99918
0.999219
0.999274
0.999347
0.999442
0.99956
0.999696
0.999831
0.9999
0.999527
0.993809
0.964668
0.841209
0.466774
0.130763
0.03098
0.00788802
0.00244572
0.00082753
0.000160504
1.20357e-05
1e-05
1e-05
1e-05
1e-05
1e-05
1e-05
1e-05
1e-05
1e-05
1e-05
1e-05
1e-05
1e-05
1e-05
1e-05
1e-05
1e-05
1e-05
1e-05
1e-05
1e-05
1e-05
1e-05
1e-05
1e-05
1e-05
1e-05
1e-05
1e-05
1e-05
1e-05
1e-05
1e-05
1e-05
1e-05
1e-05
1e-05
1e-05
1e-05
1e-05
1e-05
1e-05
1e-05
1e-05
1e-05
1e-05
1e-05
1e-05
1e-05
1e-05
1e-05
2.72987e-05
0.000544164
0.00197587
0.00510474
0.0155133
0.0604504
0.247094
0.702037
0.930011
0.987188
0.998677
0.9999
0.999883
0.999735
0.999586
0.999455
0.999346
0.99926
0.999196
0.999149
0.999117
0.999095
0.999081
0.999074
0.999071
0.999074
0.999081
0.999095
0.999117
0.99915
0.999197
0.999262
0.999349
0.999461
0.999599
0.999756
0.9999
0.9999
0.997639
0.983544
0.918361
0.670628
0.229716
0.0548549
0.0126529
0.00324286
0.00094665
0.000211313
1.71015e-05
1e-05
1e-05
1e-05
1e-05
1e-05
1e-05
1e-05
1e-05
1e-05
1e-05
1e-05
1e-05
1e-05
1e-05
1e-05
1e-05
1e-05
1e-05
1e-05
1e-05
1e-05
1e-05
1e-05
1e-05
1e-05
1e-05
1e-05
1e-05
1e-05
1e-05
1e-05
1e-05
1e-05
1e-05
1e-05
1e-05
1e-05
1e-05
1e-05
1e-05
1e-05
1e-05
1e-05
1e-05
1e-05
1e-05
1e-05
1e-05
1e-05
1e-05
1e-05
7.02622e-05
0.000874333
0.0026258
0.00689947
0.0231001
0.0957904
0.377829
0.815292
0.961909
0.994228
0.999771
0.9999
0.999804
0.999649
0.999501
0.999375
0.999273
0.999196
0.99914
0.9991
0.999074
0.999057
0.999046
0.999041
0.999039
0.999041
0.999046
0.999057
0.999074
0.999101
0.999141
0.999197
0.999275
0.999378
0.999511
0.999673
0.999846
0.9999
0.998984
0.991794
0.956475
0.805056
0.377344
0.0960515
0.0211425
0.00461131
0.00102992
0.000203743
1.76045e-05
1e-05
1e-05
1e-05
1e-05
1e-05
1e-05
1e-05
1e-05
1e-05
1e-05
1e-05
1e-05
1e-05
1e-05
1e-05
1e-05
1e-05
1e-05
1e-05
1e-05
1e-05
1e-05
1e-05
1e-05
1e-05
1e-05
1e-05
1e-05
1e-05
1e-05
1e-05
1e-05
1e-05
1e-05
1e-05
1e-05
1e-05
1e-05
1e-05
1e-05
1e-05
1e-05
1e-05
1e-05
1e-05
1e-05
1e-05
1e-05
1e-05
1e-05
1e-05
0.000149444
0.00120498
0.00328938
0.00900163
0.0328484
0.142225
0.53009
0.88232
0.978003
0.997343
0.9999
0.9999
0.999748
0.999581
0.999434
0.999313
0.999219
0.999149
0.9991
0.999067
0.999046
0.999032
0.999025
0.999021
0.999019
0.999021
0.999025
0.999033
0.999046
0.999068
0.9991
0.999148
0.999215
0.999304
0.99942
0.999566
0.999731
0.999831
0.999341
0.995426
0.975817
0.886849
0.567213
0.16478
0.0363381
0.00722488
0.00118585
0.00012988
1e-05
1e-05
1e-05
1e-05
1e-05
1e-05
1e-05
1.27309e-05
2.07695e-05
3.13296e-05
3.94889e-05
4.10584e-05
3.52749e-05
2.52576e-05
1.5865e-05
1.06595e-05
1e-05
1e-05
1e-05
1e-05
1e-05
1e-05
1e-05
1e-05
1e-05
1e-05
1e-05
1e-05
1e-05
1e-05
1e-05
1e-05
1e-05
1e-05
1e-05
1e-05
1e-05
1e-05
1e-05
1e-05
1e-05
1e-05
1e-05
1e-05
1e-05
1e-05
1e-05
1e-05
1e-05
1e-05
1e-05
1.08456e-05
0.000268042
0.00150901
0.00389748
0.011096
0.0429391
0.189122
0.652286
0.921177
0.986444
0.998803
0.9999
0.999869
0.999695
0.999526
0.999382
0.999267
0.99918
0.999117
0.999074
0.999046
0.999028
0.999018
0.999012
0.99901
0.999009
0.99901
0.999013
0.999018
0.999029
0.999045
0.999071
0.999109
0.999162
0.99923
0.999316
0.999417
0.999519
0.999556
0.999197
0.996902
0.985814
0.934739
0.727173
0.271266
0.0636617
0.0125237
0.00173453
2.86641e-05
1e-05
1e-05
1e-05
1e-05
1.04302e-05
3.52592e-05
9.79167e-05
0.00019729
0.00031446
0.000420651
0.000492854
0.000518492
0.000494051
0.000424212
0.000322934
0.000213541
0.000120592
5.6913e-05
2.22056e-05
1.03062e-05
1e-05
1e-05
1e-05
1e-05
1e-05
1e-05
1e-05
1e-05
1e-05
1e-05
1e-05
1e-05
1e-05
1e-05
1e-05
1e-05
1e-05
1e-05
1e-05
1e-05
1e-05
1e-05
1e-05
1e-05
1e-05
1e-05
1e-05
1e-05
1e-05
1e-05
1e-05
1.64225e-05
0.000410564
0.00177105
0.00439245
0.0128325
0.0512835
0.225792
0.722225
0.941126
0.990607
0.99946
0.9999
0.999815
0.999644
0.999481
0.999343
0.999234
0.999153
0.999095
0.999057
0.999032
0.999018
0.99901
0.999006
0.999004
0.999003
0.999004
0.999006
0.99901
0.999018
0.999031
0.99905
0.999076
0.999111
0.999152
0.999194
0.999229
0.999236
0.999161
0.998801
0.997309
0.990861
0.961598
0.834341
0.437925
0.116198
0.0240678