# vtk DataFile Version 2.0
time_10.vtk
ASCII
DATASET STRUCTURED_GRID
DIMENSIONS 100 100 1
POINTS 10000 float
-0.5 -0.5 0
-0.5 0 0
-0.5 0.5 0
-0.5 1 0
-0.5 1.5 0
-0.5 2 0
-0.5 2.5 0
-0.5 3 0
-0.5 3.5 0
-0.5 4 0
-0.5 4.5 0
-0.5 5 0
-0.5 5.5 0
-0.5 6 0
-0.5 6.5 0
-0.5 7 0
-0.5 7.5 0
-0.5 8 0
-0.5 8.5 0
-0.5 9 0
-0.5 9.5 0
-0.5 10 0
-0.5 10.5 0
-0.5 11 0
-0.5 11.5 0
-0.5 12 0
-0.5 12.5 0
-0.5 13 0
-0.5 13.5 0
-0.5 14 0
-0.5 14.5 0
-0.5 15 0
-0.5 15.5 0
-0.5 16 0
-0.5 16.5 0
-0.5 17 0
-0.5 17.5 0
-0.5 18 0
-0.5 18.5 0
-0.5 19 0
-0.5 19.5 0
-0.5 20 0
-0.5 20.5 0
-0.5 21 0
-0.5 21.5 0
-0.5 22 0
-0.5 22.5 0
-0.5 23 0
-0.5 23.5 0
-0.5 24 0
-0.5 24.5 0
-0.5 25 0
-0.5 25.5 0
-0.5 26 0
-0.5 26.5 0
-0.5 27 0
-0.5 27.5 0
-0.5 28 0
-0.5 28.5 0
-0.5 29 0
-0.5 29.5 0
-0.5 30 0
-0.5 30.5 0
-0.5 31 0
-0.5 31.5 0
-0.5 32 0
-0.5 32.5 0
-0.5 33 0
-0.5 33.5 0
-0.5 34 0
-0.5 34.5 0
-0.5 35 0
-0.5 35.5 0
-0.5 36 0
-0.5 36.5 0
-0.5 37 0
-0.5 37.5 0
-0.5 38 0
-0.5 38.5 0
-0.5 39 0
-0.5 39.5 0
-0.5 40 0
-0.5 40.5 0
-0.5 41 0
-0.5 41.5 0
-0.5 42 0
-0.5 42.5 0
-0.5 43 0
-0.5 43.5 0
-0.5 44 0
-0.5 44.5 0
-0.5 45 0
-0.5 45.5 0
-0.5 46 0
-0.5 46.5 0
-0.5 47 0
-0.5 47.5 0
-0.5 48 0
-0.5 48.5 0
-0.5 49 0
0 -0.5 0
0 0 0
0 0.5 0
0 1 0
0 1.5 0
0 2 0
0 2.5 0
0 3 0
0 3.5 0
0 4 0
0 4.5 0
0 5 0
0 5.5 0
0 6 0
0 6.5 0
0 7 0
0 7.5 0
0 8 0
0 8.5 0
0 9 0
0 9.5 0
0 10 0
0 10.5 0
0 11 0
0 11.5 0
0 12 0
0 12.5 0
0 13 0
0 13.5 0
0 14 0
0 14.5 0
0 15 0
0 15.5 0
0 16 0
0 16.5 0
0 17 0
0 17.5 0
0 18 0
0 18.5 0
0 19 0
0 19.5 0
0 20 0
0 20.5 0
0 21 0
0 21.5 0
0 22 0
0 22.5 0
0 23 0
0 23.5 0
0 24 0
0 24.5 0
0 25 0
0 25.5 0
0 26 0
0 26.5 0
0 27 0
0 27.5 0
0 28 0
0 28.5 0
0 29 0
0 29.5 0
0 30 0
0 30.5 0
0 31 0
0 31.5 0
0 32 0
0 32.5 0
0 33 0
0 33.5 0
0 34 0
0 34.5 0
0 35 0
0 35.5 0
0 36 0
0 36.5 0
0 37 0
0 37.5 0
0 38 0
0 38.5 0
0 39 0
0 39.5 0
0 40 0
0 40.5 0
0 41 0
0 41.5 0
0 42 0
0 42.5 0
0 43 0
0 43.5 0
0 44 0
0 44.5 0
0 45 0
0 45.5 0
0 46 0
0 46.5 0
0 47 0
0 47.5 0
0 48 0
0 48.5 0
0 49 0
0.5 -0.5 0
0.5 0 0
0.5 0.5 0
0.5 1 0
0.5 1.5 0
0.5 2 0
0.5 2.5 0
0.5 3 0
0.5 3.5 0
0.5 4 0
0.5 4.5 0
0.5 5 0
0.5 5.5 0
0.5 6 0
0.5 6.5 0
0.5 7 0
0.5 7.5 0
0.5 8 0
0.5 8.5 0
0.5 9 0
0.5 9.5 0
0.5 10 0
0.5 10.5 0
0.5 11 0
0.5 11.5 0
0.5 12 0
0.5 12.5 0
0.5 13 0
0.5 13.5 0
0.5 14 0
0.5 14.5 0
0.5 15 0
0.5 15.5 0
0.5 16 0
0.5 16.5 0
0.5 17 0
0.5 17.5 0
0.5 18 0
0.5 18.5 0
0.5 19 0
0.5 19.5 0
0.5 20 0
0.5 20.5 0
0.5 21 0
0.5 21.5 0
0.5 22 0
0.5 22.5 0
0.5 23 0
0.5 23.5 0
0.5 24 0
0.5 24.5 0
0.5 25 0
0.5 25.5 0
0.5 26 0
0.5 26.5 0
0.5 27 0
0.5 27.5 0
0.5 28 0
0.5 28.5 0
0.5 29 0
0.5 29.5 0
0.5 30 0
0.5 30.5 0
0.5 31 0
0.5 31.5 0
0.5 32 0
0.5 32.5 0
0.5 33 0
0.5 33.5 0
0.5 34 0
0.5 34.5 0
0.5 35 0
0.5 35.5 0
0.5 36 0
0.5 36.5 0
0.5 37 0
0.5 37.5 0
0.5 38 0
0.5 38.5 0
0.5 39 0
0.5 39.5 0
0.5 40 0
0.5 40.5 0
0.5 41 0
0.5 41.5 0
0.5 42 0
0.5 42.5 0
0.5 43 0
0.5 43.5 0
0.5 44 0
0.5 44.5 0
0.5 45 0
0.5 45.5 0
0.5 46 0
0.5 46.5 0
0.5 47 0
0.5 47.5 0
0.5 48 0
0.5 48.5 0
0.5 49 0
1 -0.5 0
1 0 0
1 0.5 0
1 1 0
1 1.5 0
1 2 0
1 2.5 0
1 3 0
1 3.5 0
1 4 0
1 4.5 0
1 5 0
1 5.5 0
1 6 0
1 6.5 0
1 7 0
1 7.5 0
1 8 0
1 8.5 0
1 9 0
1 9.5 0
1 10 0
1 10.5 0
1 11 0
1 11.5 0
1 12 0
1 12.5 0
1 13 0
1 13.5 0
1 14 0
1 14.5 0
1 15 0
1 15.5 0
1 16 0
1 16.5 0
1 17 0
1 17.5 0
1 18 0
1 18.5 0
1 19 0
1 19.5 0
1 20 0
1 20.5 0
1 21 0
1 21.5 0
1 22 0
1 22.5 0
1 23 0
1 23.5 0
1 24 0
1 24.5 0
1 25 0
1 25.5 0
1 26 0
1 26.5 0
1 27 0
1 27.5 0
1 28 0
1 28.5 0
1 29 0
1 29.5 0
1 30 0
1 30.5 0
1 31 0
1 31.5 0
1 32 0
1 32.5 0
1 33 0
1 33.5 0
1 34 0
1 34.5 0
1 35 0
1 35.5 0
1 36 0
1 36.5 0
1 37 0
1 37.5 0
1 38 0
1 38.5 0
1 39 0
1 39.5 0
1 40 0
1 40.5 0
1 41 0
1 41.5 0
1 42 0
1 42.5 0
1 43 0
1 43.5 0
1 44 0
1 44.5 0
1 45 0
1 45.5 0
1 46 0
1 46.5 0
1 47 0
1 47.5 0
1 48 0
1 48.5 0
1 49 0
1.5 -0.5 0
1.5 0 0
1.5 0.5 0
1.5 1 0
1.5 1.5 0
1.5 2 0
1.5 2.5 0
1.5 3 0
1.5 3.5 0
1.5 4 0
1.5 4.5 0
1.5 5 0
1.5 5.5 0
1.5 6 0
1.5 6.5 0
1.5 7 0
1.5 7.5 0
1.5 8 0
1.5 8.5 0
1.5 9 0
1.5 9.5 0
1.5 10 0
1.5 10.5 0
1.5 11 0
1.5 11.5 0
1.5 12 0
1.5 12.5 0
1.5 13 0
1.5 13.5 0
1.5 14 0
1.5 14.5 0
1.5 15 0
1.5 15.5 0
1.5 16 0
1.5 16.5 0
1.5 17 0
1.5 17.5 0
1.5 18 0
1.5 18.5 0
1.5 19 0
1.5 19.5 0
1.5 20 0
1.5 20.5 0
1.5 21 0
1.5 21.5 0
1.5 22 0
1.5 22.5 0
1.5 23 0
1.5 23.5 0
1.5 24 0
1.5 24.5 0
1.5 25 0
1.5 25.5 0
1.5 26 0
1.5 26.5 0
1.5 27 0
1.5 27.5 0
1.5 28 0
1.5 28.5 0
1.5 29 0
1.5 29.5 0
1.5 30 0
1.5 30.5 0
1.5 31 0
1.5 31.5 0
1.5 32 0
1.5 32.5 0
1.5 33 0
1.5 33.5 0
1.5 34 0
1.5 34.5 0
1.5 35 0
1.5 35.5 0
1.5 36 0
1.5 36.5 0
1.5 37 0
1.5 37.5 0
1.5 38 0
1.5 38.5 0
1.5 39 0
1.5 39.5 0
1.5 40 0
1.5 40.5 0
1.5 41 0
1.5 41.5 0
1.5 42 0
1.5 42.5 0
1.5 43 0
1.5 43.5 0
1.5 44 0
1.5 44.5 0
1.5 45 0
1.5 45.5 0
1.5 46 0
1.5 46.5 0
1.5 47 0
1.5 47.5 0
1.5 48 0
1.5 48.5 0
1.5 49 0
2 -0.5 0
2 0 0
2 0.5 0
2 1 0
2 1.5 0
2 2 0
2 2.5 0
2 3 0
2 3.5 0
2 4 0
2 4.5 0
2 5 0
2 5.5 0
2 6 0
2 6.5 0
2 7 0
2 7.5 0
2 8 0
2 8.5 0
2 9 0
2 9.5 0
2 10 0
2 10.5 0
2 11 0
2 11.5 0
2 12 0
2 12.5 0
2 13 0
2 13.5 0
2 14 0
2 14.5 0
2 15 0
2 15.5 0
2 16 0
2 16.5 0
2 17 0
2 17.5 0
2 18 0
2 18.5 0
2 19 0
2 19.5 0
2 20 0
2 20.5 0
2 21 0
2 21.5 0
2 22 0
2 22.5 0
2 23 0
2 23.5 0
2 24 0
2 24.5 0
2 25 0
2 25.5 0
2 26 0
2 26.5 0
2 27 0
2 27.5 0
2 28 0
2 28.5 0
2 29 0
2 29.5 0
2 30 0
2 30.5 0
2 31 0
2 31.5 0
2 32 0
2 32.5 0
2 33 0
2 33.5 0
2 34 0
2 34.5 0
2 35 0
2 35.5 0
2 36 0
2 36.5 0
2 37 0
2 37.5 0
2 38 0
2 38.5 0
2 39 0
2 39.5 0
2 40 0
2 40.5 0
2 41 0
2 41.5 0
2 42 0
2 42.5 0
2 43 0
2 43.5 0
2 44 0
2 44.5 0
2 45 0
2 45.5 0
2 46 0
2 46.5 0
2 47 0
2 47.5 0
2 48 0
2 48.5 0
2 49 0
2.5 -0.5 0
2.5 0 0
2.5 0.5 0
2.5 1 0
2.5 1.5 0
2.5 2 0
2.5 2.5 0
2.5 3 0
2.5 3.5 0
2.5 4 0
2.5 4.5 0
2.5 5 0
2.5 5.5 0
2.5 6 0
2.5 6.5 0
2.5 7 0
2.5 7.5 0
2.5 8 0
2.5 8.5 0
2.5 9 0
2.5 9.5 0
2.5 10 0
2.5 10.5 0
2.5 11 0
2.5 11.5 0
2.5 12 0
2.5 12.5 0
2.5 13 0
2.5 13.5 0
2.5 14 0
2.5 14.5 0
2.5 15 0
2.5 15.5 0
2.5 16 0
2.5 16.5 0
2.5 17 0
2.5 17.5 0
2.5 18 0
2.5 18.5 0
2.5 19 0
2.5 19.5 0
2.5 20 0
2.5 20.5 0
2.5 21 0
2.5 21.5 0
2.5 22 0
2.5 22.5 0
2.5 23 0
2.5 23.5 0
2.5 24 0
2.5 24.5 0
2.5 25 0
2.5 25.5 0
2.5 26 0
2.5 26.5 0
2.5 27 0
2.5 27.5 0
2.5 28 0
2.5 28.5 0
2.5 29 0
2.5 29.5 0
2.5 30 0
2.5 30.5 0
2.5 31 0
2.5 31.5 0
2.5 32 0
2.5 32.5 0
2.5 33 0
2.5 33.5 0
2.5 34 0
2.5 34.5 0
2.5 35 0
2.5 35.5 0
2.5 36 0
2.5 36.5 0
2.5 37 0
2.5 37.5 0
2.5 38 0
2.5 38.5 0
2.5 39 0
2.5 39.5 0
2.5 40 0
2.5 40.5 0
2.5 41 0
2.5 41.5 0
2.5 42 0
2.5 42.5 0
2.5 43 0
2.5 43.5 0
2.5 44 0
2.5 44.5 0
2.5 45 0
2.5 45.5 0
2.5 46 0
2.5 46.5 0
2.5 47 0
2.5 47.5 0
2.5 48 0
2.5 48.5 0
2.5 49 0
3 -0.5 0
3 0 0
3 0.5 0
3 1 0
3 1.5 0
3 2 0
3 2.5 0
3 3 0
3 3.5 0
3 4 0
3 4.5 0
3 5 0
3 5.5 0
3 6 0
3 6.5 0
3 7 0
3 7.5 0
3 8 0
3 8.5 0
3 9 0
3 9.5 0
3 10 0
3 10.5 0
3 11 0
3 11.5 0
3 12 0
3 12.5 0
3 13 0
3 13.5 0
3 14 0
3 14.5 0
3 15 0
3 15.5 0
3 16 0
3 16.5 0
3 17 0
3 17.5 0
3 18 0
3 18.5 0
3 19 0
3 19.5 0
3 20 0
3 20.5 0
3 21 0
3 21.5 0
3 22 0
3 22.5 0
3 23 0
3 23.5 0
3 24 0
3 24.5 0
3 25 0
3 25.5 0
3 26 0
3 26.5 0
3 27 0
3 27.5 0
3 28 0
3 28.5 0
3 29 0
3 29.5 0
3 30 0
3 30.5 0
3 31 0
3 31.5 0
3 32 0
3 32.5 0
3 33 0
3 33.5 0
3 34 0
3 34.5 0
3 35 0
3 35.5 0
3 36 0
3 36.5 0
3 37 0
3 37.5 0
3 38 0
3 38.5 0
3 39 0
3 39.5 0
3 40 0
3 40.5 0
3 41 0
3 41.5 0
3 42 0
3 42.5 0
3 43 0
3 43.5 0
3 44 0
3 44.5 0
3 45 0
3 45.5 0
3 46 0
3 46.5 0
3 47 0
3 47.5 0
3 48 0
3 48.5 0
3 49 0
3.5 -0.5 0
3.5 0 0
3.5 0.5 0
3.5 1 0
3.5 1.5 0
3.5 2 0
3.5 2.5 0
3.5 3 0
3.5 3.5 0
3.5 4 0
3.5 4.5 0
3.5 5 0
3.5 5.5 0
3.5 6 0
3.5 6.5 0
3.5 7 0
3.5 7.5 0
3.5 8 0
3.5 8.5 0
3.5 9 0
3.5 9.5 0
3.5 10 0
3.5 10.5 0
3.5 11 0
3.5 11.5 0
3.5 12 0
3.5 12.5 0
3.5 13 0
3.5 13.5 0
3.5 14 0
3.5 14.5 0
3.5 15 0
3.5 15.5 0
3.5 16 0
3.5 16.5 0
3.5 17 0
3.5 17.5 0
3.5 18 0
3.5 18.5 0
3.5 19 0
3.5 19.5 0
3.5 20 0
3.5 20.5 0
3.5 21 0
3.5 21.5 0
3.5 22 0
3.5 22.5 0
3.5 23 0
3.5 23.5 0
3.5 24 0
3.5 24.5 0
3.5 25 0
3.5 25.5 0
3.5 26 0
3.5 26.5 0
3.5 27 0
3.5 27.5 0
3.5 28 0
3.5 28.5 0
3.5 29 0
3.5 29.5 0
3.5 30 0
3.5 30.5 0
3.5 31 0
3.5 31.5 0
3.5 32 0
3.5 32.5 0
3.5 33 0
3.5 33.5 0
3.5 34 0
3.5 34.5 0
3.5 35 0
3.5 35.5 0
3.5 36 0
3.5 36.5 0
3.5 37 0
3.5 37.5 0
3.5 38 0
3.5 38.5 0
3.5 39 0
3.5 39.5 0
3.5 40 0
3.5 40.5 0
3.5 41 0
3.5 41.5 0
3.5 42 0
3.5 42.5 0
3.5 43 0
3.5 43.5 0
3.5 44 0
3.5 44.5 0
3.5 45 0
3.5 45.5 0
3.5 46 0
3.5 46.5 0
3.5 47 0
3.5 47.5 0
3.5 48 0
3.5 48.5 0
3.5 49 0
4 -0.5 0
4 0 0
4 0.5 0
4 1 0
4 1.5 0
4 2 0
4 2.5 0
4 3 0
4 3.5 0
4 4 0
4 4.5 0
4 5 0
4 5.5 0
4 6 0
4 6.5 0
4 7 0
4 7.5 0
4 8 0
4 8.5 0
4 9 0
4 9.5 0
4 10 0
4 10.5 0
4 11 0
4 11.5 0
4 12 0
4 12.5 0
4 13 0
4 13.5 0
4 14 0
4 14.5 0
4 15 0
4 15.5 0
4 16 0
4 16.5 0
4 17 0
4 17.5 0
4 18 0
4 18.5 0
4 19 0
4 19.5 0
4 20 0
4 20.5 0
4 21 0
4 21.5 0
4 22 0
4 22.5 0
4 23 0
4 23.5 0
4 24 0
4 24.5 0
4 25 0
4 25.5 0
4 26 0
4 26.5 0
4 27 0
4 27.5 0
4 28 0
4 28.5 0
4 29 0
4 29.5 0
4 30 0
4 30.5 0
4 31 0
4 31.5 0
4 32 0
4 32.5 0
4 33 0
4 33.5 0
4 34 0
4 34.5 0
4 35 0
4 35.5 0
4 36 0
4 36.5 0
4 37 0
4 37.5 0
4 38 0
4 38.5 0
4 39 0
4 39.5 0
4 40 0
4 40.5 0
4 41 0
4 41.5 0
4 42 0
4 42.5 0
4 43 0
4 43.5 0
4 44 0
4 44.5 0
4 45 0
4 45.5 0
4 46 0
4 46.5 0
4 47 0
4 47.5 0
4 48 0
4 48.5 0
4 49 0
4.5 -0.5 0
4.5 0 0
4.5 0.5 0
4.5 1 0
4.5 1.5 0
4.5 2 0
4.5 2.5 0
4.5 3 0
4.5 3.5 0
4.5 4 0
4.5 4.5 0
4.5 5 0
4.5 5.5 0
4.5 6 0
4.5 6.5 0
4.5 7 0
4.5 7.5 0
4.5 8 0
4.5 8.5 0
4.5 9 0
4.5 9.5 0
4.5 10 0
4.5 10.5 0
4.5 11 0
4.5 11.5 0
4.5 12 0
4.5 12.5 0
4.5 13 0
4.5 13.5 0
4.5 14 0
4.5 14.5 0
4.5 15 0
4.5 15.5 0
4.5 16 0
4.5 16.5 0
4.5 17 0
4.5 17.5 0
4.5 18 0
4.5 18.5 0
4.5 19 0
4.5 19.5 0
4.5 20 0
4.5 20.5 0
4.5 21 0
4.5 21.5 0
4.5 22 0
4.5 22.5 0
4.5 23 0
4.5 23.5 0
4.5 24 0
4.5 24.5 0
4.5 25 0
4.5 25.5 0
4.5 26 0
4.5 26.5 0
4.5 27 0
4.5 27.5 0
4.5 28 0
4.5 28.5 0
4.5 29 0
4.5 29.5 0
4.5 30 0
4.5 30.5 0
4.5 31 0
4.5 31.5 0
4.5 32 0
4.5 32.5 0
4.5 33 0
4.5 33.5 0
4.5 34 0
4.5 34.5 0
4.5 35 0
4.5 35.5 0
4.5 36 0
4.5 36.5 0
4.5 37 0
4.5 37.5 0
4.5 38 0
4.5 38.5 0
4.5 39 0
4.5 39.5 0
4.5 40 0
4.5 40.5 0
4.5 41 0
4.5 41.5 0
4.5 42 0
4.5 42.5 0
4.5 43 0
4.5 43.5 0
4.5 44 0
4.5 44.5 0
4.5 45 0
4.5 45.5 0
4.5 46 0
4.5 46.5 0
4.5 47 0
4.5 47.5 0
4.5 48 0
4.5 48.5 0
4.5 49 0
5 -0.5 0
[...]
POINT_DATA 10000
SCALARS CON float 1
LOOKUP_TABLE default
1e-05
1e-05
1e-05
1e-05
1e-05
1e-05
1e-05
1e-05
1e-05
1e-05
1e-05
1e-05
1e-05
1e-05
1e-05
1e-05
1e-05
1e-05
1e-05
1e-05
1e-05
1e-05
1e-05
1e-05
1e-05
1e-05
1e-05
1e-05
1e-05
1e-05
1e-05
1e-05
1e-05
1e-05
1e-05
1e-05
1e-05
1e-05
1e-05
1e-05
1e-05
1e-05
1e-05
1e-05
1e-05
1e-05
1e-05
1e-05
1e-05
1e-05
1e-05
1e-05
1e-05
1e-05
1e-05
1e-05
1e-05
1e-05
1e-05
1e-05
1e-05
1e-05
1e-05
1e-05
1e-05
1e-05
1e-05
1e-05
1e-05
1e-05
1e-05
1e-05
1e-05
1e-05
1e-05
1e-05
1e-05
1e-05
1e-05
1e-05
1e-05
1e-05
1e-05
1e-05
1e-05
1e-05
1e-05
1e-05
1e-05
1e-05
1e-05
1e-05
1e-05
1e-05
1e-05
1e-05
1e-05
1e-05
1e-05
1e-05
1e-05
1e-05
1e-05
1e-05
1e-05
1e-05
1e-05
1e-05
1e-05
1e-05
1e-05
1e-05
1e-05
1e-05
1e-05
1e-05
1e-05
1e-05
1e-05
1e-05
1e-05
1e-05
1e-05
1e-05
1e-05
1e-05
1e-05
1e-05
1e-05
1e-05
1e-05
1e-05
1e-05
1e-05
1e-05
1e-05
1e-05
1e-05
1e-05
1e-05
1e-05
1e-05
1e-05
1e-05
1e-05
1e-05
1e-05
1e-05
1e-05
1e-05
1e-05
1e-05
1e-05
1e-05
1e-05
1e-05
1e-05
1e-05
1e-05
1e-05
1e-05
1e-05
1e-05
1e-05
1e-05
1e-05
1e-05
1e-05
1e-05
1e-05
1e-05
1e-05
1e-05
1e-05
1e-05
1e-05
1e-05
1e-05
1e-05
1e-05
1e-05
1e-05
1e-05
1e-05
1e-05
1e-05
1e-05
1e-05
1e-05
1e-05
1e-05
1e-05
1e-05
1e-05
1e-05
1e-05
1e-05
1e-05
1e-05
1e-05
1e-05
1e-05
1e-05
1e-05
1e-05
1e-05
1e-05
1e-05
1e-05
1e-05
1e-05
1e-05
1e-05
1e-05
1e-05
1e-05
1e-05
1e-05
1e-05
1e-05
1e-05
1e-05
1e-05
1e-05
1e-05
1e-05
1e-05
1e-05
1e-05
1e-05
1e-05
1e-05
1e-05
1e-05
1e-05
1e-05
1e-05
1e-05
1e-05
1e-05
1e-05
1e-05
1e-05
1e-05
1e-05
1e-05
1e-05
1e-05
1e-05
1e-05
1e-05
1e-05
1e-05
1e-05
1e-05
1e-05
1e-05
1e-05
1e-05
1e-05
1e-05
1e-05
1e-05
1e-05
1e-05
1e-05
1e-05
1e-05
1e-05
1e-05
1e-05
1e-05
1e-05
1e-05
1e-05
1e-05
1e-05
1e-05
1e-05
1e-05
1e-05
1e-05
1e-05
1e-05
1e-05
1e-05
1e-05
1e-05
1e-05
1e-05
1e-05
1e-05
1e-05
1e-05
1e-05
1e-05
1e-05
1e-05
1e-05
1e-05
1e-05
1e-05
1e-05
1e-05
1e-05
1e-05
1e-05
1e-05
1e-05
1e-05
1e-05
1e-05
1e-05
1e-05
1e-05
1e-05
1e-05
1e-05
1e-05
1e-05
1e-05
1e-05
1e-05
1e-05
1e-05
1e-05
1e-05
1e-05
1e-05
1e-05
1e-05
1e-05
1e-05
1e-05
1e-05
1e-05
1e-05
1e-05
1e-05
1e-05
1e-05
1e-05
1e-05
1e-05
1e-05
1e-05
1e-05
1e-05
1e-05
1e-05
1e-05
1e-05
1e-05
1e-05
1e-05
1e-05
1e-05
1e-05
1e-05
1e-05
1e-05
1e-05
1e-05
1e-05
1e-05
1e-05
1e-05
1e-05
1e-05
1e-05
1e-05
1e-05
1e-05
1e-05
1e-05
1e-05
1e-05
1e-05
1e-05
1e-05
1e-05
1e-05
1e-05
1e-05
1e-05
1e-05
1e-05
1e-05
1e-05
1e-05
1e-05
1e-05
1e-05
1e-05
1e-05
1e-05
1e-05
1e-05
1e-05
1e-05
1e-05
1e-05
1e-05
1e-05
1e-05
1e-05
1e-05
1e-05
1e-05
1e-05
1e-05
1e-05
1e-05
1e-05
1e-05
1e-05
1e-05
1e-05
1e-05
1e-05
1e-05
1e-05
1e-05
1e-05
1e-05
1e-05
1e-05
1e-05
1e-05
1e-05
1e-05
1e-05
1e-05
1e-05
1e-05
1e-05
1e-05
1e-05
1e-05
1e-05
1e-05
1e-05
1e-05
1e-05
1e-05
1e-05
1e-05
1e-05
1e-05
1e-05
1e-05
1e-05
1e-05
1e-05
1e-05
1e-05
1e-05
1e-05
1e-05
1e-05
1e-05
1e-05
1e-05
1e-05
1e-05
1e-05
1e-05
1e-05
1e-05
1e-05
1e-05
1e-05
1e-05
1e-05
1e-05
1e-05
1e-05
1e-05
1e-05
1e-05
1e-05
1e-05
1e-05
1e-05
1e-05
1e-05
1e-05
1e-05
1e-05
1e-05
1e-05
1e-05
1e-05
1e-05
1e-05
1e-05
1e-05
1e-05
1e-05
1e-05
1e-05
1e-05
1e-05
1e-05
1e-05
1e-05
1e-05
1e-05
1e-05
1e-05
1e-05
1e-05
1e-05
1e-05
1e-05
1e-05
1e-05
1e-05
1e-05
1e-05
1e-05
1e-05
1e-05
1e-05
1e-05
1.29109e-05
2.3444e-05
4.11554e-05
6.19876e-05
7.90159e-05
8.55994e-05
7.90086e-05
6.19752e-05
4.11416e-05
2.34324e-05
1.29042e-05
1e-05
1e-05
1e-05
1e-05
1e-05
1e-05
1e-05
1e-05
1e-05
1e-05
1e-05
1e-05
1e-05
1e-05
1e-05
1e-05
1e-05
1e-05
1e-05
1e-05
1e-05
1e-05
1e-05
1e-05
1e-05
1e-05
1e-05
1e-05
1e-05
1e-05
1e-05
1e-05
1e-05
1e-05
1e-05
1e-05
1e-05
1e-05
1e-05
1e-05
1e-05
1e-05
1e-05
1e-05
1e-05
1e-05
1e-05
1e-05
1e-05
1e-05
1e-05
1e-05
1e-05
1e-05
1e-05
1e-05
1e-05
1e-05
1e-05
1e-05
1e-05
1e-05
1e-05
1e-05
1e-05
1e-05
1e-05
1e-05
1e-05
1e-05
1e-05
1e-05
1e-05
1e-05
1e-05
1e-05
1e-05
1e-05
1e-05
1e-05
1e-05
1e-05
1e-05
1e-05
1e-05
1.03071e-05
2.39102e-05
6.54855e-05
0.0001457
0.00026781
0.000416223
0.00056132
0.000678093
0.00075239
0.000777732
0.000752266
0.00067786
0.000561012
0.000415892
0.000267516
0.000145486
6.53542e-05
2.38454e-05
1.02957e-05
1e-05
1e-05
1e-05
1e-05
1e-05
1e-05
1e-05
1e-05
1e-05
1e-05
1e-05
1e-05
1e-05
1e-05
1e-05
1e-05
1e-05
1e-05
1e-05
1e-05
1e-05
1e-05
1e-05
1e-05
1e-05
1e-05
1e-05
1e-05
1e-05
1e-05
1e-05
1e-05
1e-05
1e-05
1e-05
1e-05
1e-05
1e-05
1e-05
1e-05
1e-05
1e-05
1e-05
1e-05
1e-05
1e-05
1e-05
1e-05
1e-05
1e-05
1e-05
1e-05
1e-05
1e-05
1e-05
1e-05
1e-05
1e-05
1e-05
1e-05
1e-05
1e-05
1e-05
1e-05
1e-05
1e-05
1e-05
1e-05
1e-05
1e-05
1e-05
1e-05
1e-05
1e-05
1e-05
1e-05
1e-05
1e-05
1e-05
1.62732e-05
6.3465e-05
0.00018929
0.000416789
0.000702788
0.000996291
0.00127508
0.00152571
0.00173272
0.00188427
0.00197549
0.00200571
0.00197512
0.00188358
0.00173181
0.0015247
0.00127408
0.000995398
0.00070203
0.000416197
0.00018891
6.32709e-05
1.61961e-05
1e-05
1e-05
1e-05
1e-05
1e-05
1e-05
1e-05
1e-05
1e-05
1e-05
1e-05
1e-05
1e-05
1e-05
1e-05
1e-05
1e-05
1e-05
1e-05
1e-05
1e-05
1e-05
1e-05
1e-05
1e-05
1e-05
1e-05
1e-05
1e-05
1e-05
1e-05
1e-05
1e-05
1e-05
1e-05
1e-05
1e-05
1e-05
1e-05
1e-05
1e-05
1e-05
1e-05
1e-05
1e-05
1e-05
1e-05
1e-05
1e-05
1e-05
1e-05
1e-05
1e-05
1e-05
1e-05
1e-05
1e-05
1e-05
1e-05
1e-05
1e-05
1e-05
1e-05
1e-05
1e-05
1e-05
1e-05
1e-05
1e-05
1e-05
1e-05
1e-05
1e-05
1e-05
1e-05
1.8463e-05
9.1574e-05
0.000296936
0.000629133
0.00103736
0.00151177
0.00203414
0.00257797
0.00312014
0.00362049
0.00402813
0.00431446
0.00447885
0.00453168
0.00447836
0.00431364
0.00402724
0.00361978
0.00311973
0.0025779
0.00203442
0.00151238
0.00103807
0.000629653
0.000297068
9.14908e-05
1.83801e-05
1e-05
1e-05
1e-05
1e-05
1e-05
1e-05
1e-05
1e-05
1e-05
1e-05
1e-05
1e-05
1e-05
1e-05
1e-05
1e-05
1e-05
1e-05
1e-05
1e-05
1e-05
1e-05
1e-05
1e-05
1e-05
1e-05
1e-05
1e-05
1e-05
1e-05
1e-05
1e-05
1e-05
1e-05
1e-05
1e-05
1e-05
1e-05
1e-05
1e-05
1e-05
1e-05
1e-05
1e-05
1e-05
1e-05
1e-05
1e-05
1e-05
1e-05
1e-05
1e-05
1e-05
1e-05
1e-05
1e-05
1e-05
1e-05
1e-05
1e-05
1e-05
1e-05
1e-05
1e-05
1e-05
1e-05
1e-05
1e-05
1e-05
1e-05
1e-05
1.18349e-05
7.41054e-05
0.000294119
0.000675115
0.00118477
0.00182423
0.00260378
0.00356886
0.00477377
0.00627379
0.00807946
0.0099913
0.0116614
0.012865
0.0135599
0.0137838
0.0135605
0.0128669
0.0116651
0.00999707
0.0080865
0.00628103
0.00478105
0.00357634
0.00261124
0.00183119
0.00119056
0.000679058
0.000295906
7.44135e-05
1.18043e-05
1e-05
1e-05
1e-05
1e-05
1e-05
1e-05
1e-05
1e-05
1e-05
1e-05
1e-05
1e-05
1e-05
1e-05
1e-05
1e-05
1e-05
1e-05
1e-05
1e-05
1e-05
1e-05
1e-05
1e-05
1e-05
1e-05
1e-05
1e-05
1e-05
1e-05
1e-05
1e-05
1e-05
1e-05
1e-05
1e-05
1e-05
1e-05
1e-05
1e-05
1e-05
1e-05
1e-05
1e-05
1e-05
1e-05
1e-05
1e-05
1e-05
1e-05
1e-05
1e-05
1e-05
1e-05
1e-05
1e-05
1e-05
1e-05
1e-05
1e-05
1e-05
1e-05
1e-05
1e-05
1e-05
1e-05
1e-05
1e-05
2.80622e-05
0.000184501
0.000550935
0.00108866
0.00180318
0.00275361
0.00409792
0.00610614
0.00915922
0.013651
0.0200221
0.028568
0.0381921
0.0467364
0.0528734
0.0563936
0.0575252
0.0564015
0.0528915
0.0467672
0.0382345
0.0286144
0.0200631
0.0136851
0.00918826
0.00613133
0.00412048
0.00277388
0.00182038
0.00110153
0.000558621
0.000187281
2.83423e-05
1e-05
1e-05
1e-05
1e-05
1e-05
1e-05
1e-05
1e-05
1e-05
1e-05
1e-05
1e-05
1e-05
1e-05
1e-05
1e-05
1e-05
1e-05
1e-05
1e-05
1e-05
1e-05
1e-05
1e-05
1e-05
1e-05
1e-05
1e-05
1e-05
1e-05
1e-05
1e-05
1e-05
1e-05
1e-05
1e-05
1e-05
1e-05
1e-05
1e-05
1e-05
1e-05
1e-05
1e-05
1e-05
1e-05
1e-05
1e-05
1e-05
1e-05
1e-05
1e-05
1e-05
1e-05
1e-05
1e-05
1e-05
1e-05
1e-05
1e-05
1e-05
1e-05
1e-05
1e-05
1e-05
1e-05
5.15726e-05
0.000300873
0.000783661
0.00147382
0.00241632
0.00382611
0.00619918
0.0104767
0.0181773
0.0313599
0.0518295
0.0815786
0.122642
0.168733
0.207915
0.234639
0.24938
0.254026
0.249417
0.234724
0.208063
0.168942
0.122871
0.081768
0.0519697
0.031461
0.0182465
0.010527
0.006241
0.00386369
0.00244924
0.00149978
0.000800706
0.000308859
5.30076e-05
1e-05
1e-05
1e-05
1e-05
1e-05
1e-05
1e-05
1e-05
1e-05
1e-05
1e-05
1e-05
1e-05
1e-05
1e-05
1e-05
1e-05
1e-05
1e-05
1e-05
1e-05
1e-05
1e-05
1e-05
1e-05
1e-05
1e-05
1e-05
1e-05
1e-05
1e-05
1e-05
1e-05
1e-05
1e-05
1e-05
1e-05
1e-05
1e-05
1e-05
1e-05
1e-05
1e-05
1e-05
1e-05
1e-05
1e-05
1e-05
1e-05
1e-05
1e-05
1e-05
1e-05
1e-05
1e-05
1e-05
1e-05
1e-05
1e-05
1e-05
1e-05
1e-05
1e-05
1e-05
6.27866e-05
0.000370835
0.000946905
0.00176859
0.0029564
0.00496971
0.00897891
0.0174876
0.0350872
0.0688257
0.127487
0.214097
0.328088
0.470835
0.605773
0.693237
0.737917
0.757544
0.763015
0.75759
0.738043
0.693523
0.606317
0.471578
0.328765
0.214615
0.127849
0.0690208
0.0351781
0.0175381
0.00902327
0.00501684
0.00300264
0.00180763
0.000974269
0.000384992
6.58915e-05
1e-05
1e-05
1e-05
1e-05
1e-05
1e-05
1e-05
1e-05
1e-05
1e-05
1e-05
1e-05
1e-05
1e-05
1e-05
1e-05
1e-05
1e-05
1e-05
1e-05
1e-05
1e-05
1e-05
1e-05
1e-05
1e-05
1e-05
1e-05
1e-05
1e-05
1e-05
1e-05
1e-05
1e-05
1e-05
1e-05
1e-05
1e-05
1e-05
1e-05
1e-05
1e-05
1e-05
1e-05
1e-05
1e-05
1e-05
1e-05
1e-05
1e-05
1e-05
1e-05
1e-05
1e-05
1e-05
1e-05
1e-05
1e-05
1e-05
1e-05
1e-05
1e-05
5.15759e-05
0.000370835
0.00100523
0.00192973
0.00333516
0.00598984
0.0120793
0.0269368
0.0616611
0.134574
0.265148
0.459103
0.657265
0.785224
0.860995
0.907319
0.932852
0.945221
0.95051
0.95196
0.950522
0.945255
0.932933
0.907489
0.861299
0.785724
0.658073
0.46002
0.265635
0.134664
0.061589
0.0268675
0.0120652
0.00601966
0.00338277
0.00197596
0.00103997
0.000389812
5.5699e-05
1e-05
1e-05
1e-05
1e-05
1e-05
1e-05
1e-05
1e-05
1e-05
1e-05
1e-05
1e-05
1e-05
1e-05
1e-05
1e-05
1e-05
1e-05
1e-05
1e-05
1e-05
1e-05
1e-05
1e-05
1e-05
1e-05
1e-05
1e-05
1e-05
1e-05
1e-05
1e-05
1e-05
1e-05
1e-05
1e-05
1e-05
1e-05
1e-05
1e-05
1e-05
1e-05
1e-05
1e-05
1e-05
1e-05
1e-05
1e-05
1e-05
1e-05
1e-05
1e-05
1e-05
1e-05
1e-05
1e-05
1e-05
1e-05
1e-05
1e-05
2.80668e-05
0.000300875
0.000946865
0.00192966
0.00347258
0.00660623
0.0146245
0.0366325
0.0939301
0.223003
0.447262
0.6902
0.839084
0.916595
0.95426
0.973158
0.983354
0.988661
0.99116
0.992195
0.992471
0.992197
0.991166
0.988677
0.983392
0.973235
0.954404
0.916855
0.839455
0.690452
0.446907
0.222132
0.0931225
0.0361644
0.0144426
0.00657725
0.00350236
0.00197224
0.000982968
0.000321614
3.16227e-05
1e-05
1e-05
1e-05
1e-05
1e-05
1e-05
1e-05
1e-05
1e-05
1e-05
1e-05
1e-05
1e-05
1e-05
1e-05
1e-05
1e-05
1e-05
1e-05
1e-05
1e-05
1e-05
1e-05
1e-05
1e-05
1e-05
1e-05
1e-05
1e-05
1e-05
1e-05
1e-05
1e-05
1e-05
1e-05
1e-05
1e-05
1e-05
1e-05
1e-05
1e-05
1e-05
1e-05
1e-05
1e-05
1e-05
1e-05
1e-05
1e-05
1e-05
1e-05
1e-05
1e-05
1e-05
1e-05
1e-05
1e-05
1e-05
1.18375e-05
0.000184506
0.000783592
0.00176841
0.00333489
0.00660601
0.0156199
0.0429103
0.121097
0.306406
0.59668
0.81342
0.919451
0.964748
0.984168
0.992616
0.996399
0.998181
0.999022
0.999377
0.999504
0.999533
0.999504
0.999377
0.999024
0.998188
0.996416
0.992657
0.984245
0.964851
0.91945
0.812754
0.594107
0.30277
0.118512
0.0416704
0.0151648
0.00648274
0.00332723
0.0017951
0.000814494
0.000203059
1.33931e-05
1e-05
1e-05
1e-05
1e-05
1e-05
1e-05
1e-05
1e-05
1e-05
1e-05
1e-05
1e-05
1e-05
1e-05
1e-05
1e-05
1e-05
1e-05
1e-05
1e-05
1e-05
1e-05
1e-05
1e-05
1e-05
1e-05
1e-05
1e-05
1e-05
1e-05
1e-05
1e-05
1e-05
1e-05
1e-05
1e-05
1e-05
1e-05
1e-05
1e-05
1e-05
1e-05
1e-05
1e-05
1e-05
1e-05
1e-05
1e-05
1e-05
1e-05
1e-05
1e-05
1e-05
1e-05
1e-05
1e-05
1e-05
7.41139e-05
0.000550861
0.00147355
0.00295594
0.00598925
0.0146239
0.0429099
0.131698
0.354626
0.675559
0.872087
0.952913
0.983037
0.994097
0.998129
0.99955
0.9999
0.9999
0.9999
0.9999
0.9999
0.9999
0.9999
0.9999
0.9999
0.9999
0.9999
0.999561
0.998155
0.99414
0.983039
0.952584
0.870321
0.669729
0.345896
0.126327
0.0407189
0.0138852
0.00576278
0.00289768
0.00147599
0.000573016
8.63096e-05
1e-05
1e-05
1e-05
1e-05
1e-05
1e-05
1e-05
1e-05
1e-05
1e-05
1e-05
1e-05
1e-05
1e-05
1e-05
1e-05
1e-05
1e-05
1e-05
1e-05
1e-05
1e-05
1e-05
1e-05
1e-05
1e-05
1e-05
1e-05
1e-05
1e-05
1e-05
1e-05
1e-05
1e-05
1e-05
1e-05
1e-05
1e-05
1e-05
1e-05
1e-05
1e-05
1e-05
1e-05
1e-05
1e-05
1e-05
1e-05
1e-05
1e-05
1e-05
1e-05
1e-05
1e-05
1e-05
1e-05
1.84693e-05
0.000294068
0.00108838
0.00241574
0.00496889
0.0120785
0.0366319
0.121096
0.354625
0.699002
0.894675
0.966551
0.990087
0.997512
0.999607
0.9999
0.9999
0.9999
0.9999
0.999864
0.999825
0.999803
0.999796
0.999803
0.999825
0.999864
0.9999
0.9999
0.9999
0.9999
0.999625
0.997528
0.989984
0.965789
0.891235
0.687967
0.338954
0.113004
0.0338003
0.0111693
0.00465499
0.00230401
0.00106742
0.000310363
2.353e-05
1e-05
1e-05
1e-05
1e-05
1e-05
1e-05
1e-05
1e-05
1e-05
1e-05
1e-05
1e-05
1e-05
1e-05
1e-05
1e-05
1e-05
1e-05
1e-05
1e-05
1e-05
1e-05
1e-05
1e-05
1e-05
1e-05
1e-05
1e-05
1e-05
1e-05
1e-05
1e-05
1e-05
1e-05
1e-05
1e-05
1e-05
1e-05
1e-05
1e-05
1e-05
1e-05
1e-05
1e-05
1e-05
1e-05
1e-05
1e-05
1e-05
1e-05
1e-05
1e-05
1e-05
1e-05
1e-05
9.15609e-05
0.000674867
0.00180258
0.0038252
0.00897806
0.026937
0.0939326
0.306409
0.675559
0.894675
0.970209
0.992553
0.998627
0.9999
0.9999
0.9999
0.999834
0.999776
0.999736
0.999693
0.999655
0.999632
0.999625
0.999632
0.999655
0.999693
0.999736
0.999775
0.999833
0.9999
0.9999
0.9999
0.998609
0.992276
0.968661
0.888151
0.655798
0.284282
0.0849315
0.0241319
0.00804229
0.00344569
0.00164739
0.00064153
0.000102404
1e-05
1e-05
1e-05
1e-05
1e-05
1e-05
1e-05
1e-05
1e-05
1e-05
1e-05
1e-05
1e-05
1e-05
1e-05
1e-05
1e-05
1e-05
1e-05
1e-05
1e-05
1e-05
1e-05
1e-05
1e-05
1e-05
1e-05
1e-05
1e-05
1e-05
1e-05
1e-05
1e-05
1e-05
1e-05
1e-05
1e-05
1e-05
1e-05
1e-05
1e-05
1e-05
1e-05
1e-05
1e-05
1e-05
1e-05
1e-05
1e-05
1e-05
1e-05
1e-05
1e-05
1e-05
1.62727e-05
0.000296773
0.00118424
0.00275273
0.00619835
0.0174884
0.0616676
0.223021
0.596693
0.872089
0.96655
0.992553
0.998883
0.9999
0.9999
0.999836
0.999767
0.999688
0.999621
0.999569
0.999526
0.999494
0.999474
0.999468
0.999474
0.999494
0.999526
0.999569
0.99962
0.999688
0.999766
0.999835
0.9999
0.9999
0.998802
0.991903
0.963379
0.859538
0.563579
0.199961
0.0542268
0.0151997
0.00530344
0.00232997
0.00101414
0.000274368
2.05255e-05
1e-05
1e-05
1e-05
1e-05
1e-05
1e-05
1e-05
1e-05
1e-05
1e-05
1e-05
1e-05
1e-05
1e-05
1e-05
1e-05
1e-05
1e-05
1e-05
1e-05
1e-05
1e-05
1e-05
1e-05
1e-05
1e-05
1e-05
1e-05
1e-05
1e-05
1e-05
1e-05
1e-05
1e-05
1e-05
1e-05
1e-05
1e-05
1e-05
1e-05
1e-05
1e-05
1e-05
1e-05
1e-05
1e-05
1e-05
1e-05
1e-05
1e-05
1e-05
1e-05
1e-05
6.34206e-05
0.000628721
0.00182346
0.00409714
0.0104774
0.0350952
0.134605
0.447317
0.813438
0.952915
0.990087
0.998627
0.9999
0.9999
0.999813
0.999715
0.999625
0.999544
0.999477
0.999426
0.999387
0.999359
0.999343
0.999337
0.999343
0.999359
0.999387
0.999426
0.999477
0.999544
0.999625
0.999715
0.999813
0.9999
0.9999
0.99839
0.988584
0.946467
0.790534
0.405934
0.118071
0.0302601
0.00872463
0.00323784
0.00139529
0.00048741
6.16479e-05
1e-05
1e-05
1e-05
1e-05
1e-05
1e-05
1e-05
1e-05
1e-05
1e-05
1e-05
1e-05
1e-05
1e-05
1e-05
1e-05
1e-05
1e-05
1e-05
1e-05
1e-05
1e-05
1e-05
1e-05
1e-05
1e-05
1e-05
1e-05
1e-05
1e-05
1e-05
1e-05
1e-05
1e-05
1e-05
1e-05
1e-05
1e-05
1e-05
1e-05
1e-05
1e-05
1e-05
1e-05
1e-05
1e-05
1e-05
1e-05
1e-05
1e-05
1e-05
1e-05
1.0304e-05
0.000189069
0.00103675
0.0026031
0.00610654
0.0181837
0.0688564
0.265245
0.690276
0.919468
0.983039
0.997512
0.9999
0.9999
0.999813
0.9997
0.999592
0.999498
0.999419
0.999357
0.99931
0.999275
0.999252
0.999238
0.999234
0.999238
0.999252
0.999275
0.99931
0.999357
0.99942
0.999498
0.999593
0.999703
0.999815
0.9999
0.999897
0.996781
0.979745
0.907007
0.653975
0.237103
0.0603774
0.0152894
0.00465481
0.00178515
0.000675086
0.000130991
1.14011e-05
1e-05
1e-05
1e-05
1e-05
1e-05
1e-05
1e-05
1e-05
1e-05
1e-05
1e-05
1e-05
1e-05
1e-05
1e-05
1e-05
1e-05
1e-05
1e-05
1e-05
1e-05
1e-05
1e-05
1e-05
1e-05
1e-05
1e-05
1e-05
1e-05
1e-05
1e-05
1e-05
1e-05
1e-05
1e-05
1e-05
1e-05
1e-05
1e-05
1e-05
1e-05
1e-05
1e-05
1e-05
1e-05
1e-05
1e-05
1e-05
1e-05
1e-05
1e-05
2.38601e-05
0.000416302
0.00151119
0.00356901
0.00916322
0.0313811
0.127573
0.459309
0.839159
0.964762
0.994098
0.999607
0.9999
0.999836
0.999715
0.999592
0.999483
0.999391
0.999317
0.999261
0.999219
0.999189
0.999169
0.999158
0.999155
0.999158
0.999169
0.999189
0.999219
0.999261
0.999318
0.999392
0.999485
0.999597
0.999725
0.999852
0.9999
0.999249
0.99227
0.958379
0.818731
0.424608
0.116661
0.0277389
0.0071316
0.00225328
0.000806691
0.000200099
1.84533e-05
1e-05
1e-05
1e-05
1e-05
1e-05
1e-05
1e-05
1e-05
1e-05
1e-05
1e-05
1e-05
1e-05
1e-05
1e-05
1e-05
1e-05
1e-05
1e-05
1e-05
1e-05
1e-05
1e-05
1e-05
1e-05
1e-05
1e-05
1e-05
1e-05
1e-05
1e-05
1e-05
1e-05
1e-05
1e-05
1e-05
1e-05
1e-05
1e-05
1e-05
1e-05
1e-05
1e-05
1e-05
1e-05
1e-05
1e-05
1e-05
1e-05
1e-05
1e-05
6.53164e-05
0.000702266
0.00203415
0.00477614
0.0136633
0.0518837
0.214293
0.657509
0.91666
0.98418
0.99813
0.9999
0.9999
0.999767
0.999625
0.999498
0.999391
0.999305
0.999237
0.999187
0.999151
0.999126
0.999109
0.9991
0.999097
0.9991
0.999109
0.999126
0.999151
0.999187
0.999238
0.999306
0.999393
0.999502
0.999633
0.999777
0.9999
0.9999
0.996999
0.980777
0.907662
0.639625
0.211771
0.0504577
0.0116586
0.00297764
0.000879393
0.000228867
2.52753e-05
1e-05
1e-05
1e-05
1e-05
1e-05
1e-05
1e-05
1e-05
1e-05
1e-05
1e-05
1e-05
1e-05
1e-05
1e-05
1e-05
1e-05
1e-05
1e-05
1e-05
1e-05
1e-05
1e-05
1e-05
1e-05
1e-05
1e-05
1e-05
1e-05
1e-05
1e-05
1e-05
1e-05
1e-05
1e-05
1e-05
1e-05
1e-05
1e-05
1e-05
1e-05
1e-05
1e-05
1e-05
1e-05
1e-05
1e-05
1e-05
1e-05
1e-05
1e-05
0.000145342
0.000996139
0.00257949
0.00628063
0.0200502
0.0816984
0.32849
0.785458
0.954315
0.992626
0.999551
0.9999
0.999834
0.999688
0.999544
0.999419
0.999317
0.999237
0.999177
0.999132
0.999101
0.999081
0.999068
0.99906
0.999058
0.999061
0.999068
0.999081
0.999102
0.999133
0.999176
0.999236
0.999315
0.999416
0.999542
0.999695
0.99986
0.9999
0.998674
0.990576
0.951935
0.790059
0.358148
0.0910662
0.0201139
0.00434759
0.000937873
0.000193705
2.23096e-05
1e-05
1e-05
1e-05
1e-05
1e-05
1e-05
1e-05
1e-05
1e-05
1e-05
1e-05
1e-05
1e-05
1e-05
1e-05
1e-05
1e-05
1e-05
1e-05
1e-05
1e-05
1e-05
1e-05
1e-05
1e-05
1e-05
1e-05
1e-05
1e-05
1e-05
1e-05
1e-05
1e-05
1e-05
1e-05
1e-05
1e-05
1e-05
1e-05
1e-05
1e-05
1e-05
1e-05
1e-05
1e-05
1e-05
1e-05
1e-05
1e-05
1e-05
1.28654e-05
0.000267312
0.00127582
0.00312439
0.00809339
0.0286197
0.122855
0.471468
0.861223
0.973209
0.996408
0.9999
0.9999
0.999776
0.999621
0.999477
0.999357
0.999261
0.999187
0.999132
0.999094
0.999068
0.99905
0.99904
0.999035
0.999033
0.999035
0.99904
0.999051
0.999068
0.999093
0.999129
0.999179
0.999246
0.999331
0.999438
0.999569
0.999714
0.999774
0.999141
0.994871
0.974057
0.881023
0.554937
0.161989
0.0360444
0.00717699
0.00113076
0.000101842
1e-05
1e-05
1e-05
1e-05
1e-05
1e-05
1.21255e-05
2.177e-05
3.80849e-05
5.64019e-05
7.00762e-05
7.37916e-05
6.62766e-05
5.08408e-05
3.34448e-05
1.9502e-05
1.17036e-05
1e-05
1e-05
1e-05
1e-05
1e-05
1e-05
1e-05
1e-05
1e-05
1e-05
1e-05
1e-05
1e-05
1e-05
1e-05
1e-05
1e-05
1e-05
1e-05
1e-05
1e-05
1e-05
1e-05
1e-05
1e-05
1e-05
1e-05
1e-05
1e-05
1e-05
1e-05
1e-05
1e-05
1e-05
2.33242e-05
0.000415902
0.00152811
0.00362894
0.0100145
0.0382681
0.169019
0.606419
0.907516
0.9834
0.998191
0.9999
0.9999
0.999736
0.999569
0.999426
0.99931
0.999219
0.999151
0.999101
0.999068
0.999045
0.999031
0.999023
0.999019
0.999018
0.999019
0.999023
0.999031
0.999044
0.999064
0.999092
0.999131
0.99918
0.999242
0.999314
0.999394
0.999468
0.999466
0.999044
0.996647
0.985306
0.93364
0.726339
0.27657
0.0660475
0.0132158
0.00186496
1e-05
1e-05
1e-05
1e-05
1e-05
1.38573e-05
5.29612e-05
0.000132769
0.00024374
0.000361585
0.000463434
0.000534983
0.000568793
0.000561805
0.000514271
0.000430549
0.000321971
0.00020894
0.00011456
5.14803e-05
1.90854e-05
1.00034e-05
1e-05
1e-05
1e-05
1e-05
1e-05
1e-05
1e-05
1e-05
1e-05
1e-05
1e-05
1e-05
1e-05
1e-05
1e-05
1e-05
1e-05
1e-05
1e-05
1e-05
1e-05
1e-05
1e-05
1e-05
1e-05
1e-05
1e-05
1e-05
1e-05
1e-05
4.09593e-05
0.000561693
0.00173779
0.00404258
0.0116957
0.0468337
0.208237
0.69375
0.93301
0.988705
0.999034
0.9999
0.999863
0.999692
0.999526
0.999387
0.999275
0.999189
0.999126
0.999081
0.999051
0.999031
0.99902
0.999013
0.99901
0.999009
0.99901
0.999013
0.999019
0.999029
0.999043
0.999062
0.999087
0.999115
0.999144
0.999168
0.999179
0.999159