# vtk DataFile Version 2.0
time_10.vtk
ASCII
DATASET STRUCTURED_GRID
DIMENSIONS 100 100 1
POINTS 10000 float
-0.5 -0.5 0
-0.5 0 0
-0.5 0.5 0
-0.5 1 0
-0.5 1.5 0
-0.5 2 0
-0.5 2.5 0
-0.5 3 0
-0.5 3.5 0
-0.5 4 0
-0.5 4.5 0
-0.5 5 0
-0.5 5.5 0
-0.5 6 0
-0.5 6.5 0
-0.5 7 0
-0.5 7.5 0
-0.5 8 0
-0.5 8.5 0
-0.5 9 0
-0.5 9.5 0
-0.5 10 0
-0.5 10.5 0
-0.5 11 0
-0.5 11.5 0
-0.5 12 0
-0.5 12.5 0
-0.5 13 0
-0.5 13.5 0
-0.5 14 0
-0.5 14.5 0
-0.5 15 0
-0.5 15.5 0
-0.5 16 0
-0.5 16.5 0
-0.5 17 0
-0.5 17.5 0
-0.5 18 0
-0.5 18.5 0
-0.5 19 0
-0.5 19.5 0
-0.5 20 0
-0.5 20.5 0
-0.5 21 0
-0.5 21.5 0
-0.5 22 0
-0.5 22.5 0
-0.5 23 0
-0.5 23.5 0
-0.5 24 0
-0.5 24.5 0
-0.5 25 0
-0.5 25.5 0
-0.5 26 0
-0.5 26.5 0
-0.5 27 0
-0.5 27.5 0
-0.5 28 0
-0.5 28.5 0
-0.5 29 0
-0.5 29.5 0
-0.5 30 0
-0.5 30.5 0
-0.5 31 0
-0.5 31.5 0
-0.5 32 0
-0.5 32.5 0
-0.5 33 0
-0.5 33.5 0
-0.5 34 0
-0.5 34.5 0
-0.5 35 0
-0.5 35.5 0
-0.5 36 0
-0.5 36.5 0
-0.5 37 0
-0.5 37.5 0
-0.5 38 0
-0.5 38.5 0
-0.5 39 0
-0.5 39.5 0
-0.5 40 0
-0.5 40.5 0
-0.5 41 0
-0.5 41.5 0
-0.5 42 0
-0.5 42.5 0
-0.5 43 0
-0.5 43.5 0
-0.5 44 0
-0.5 44.5 0
-0.5 45 0
-0.5 45.5 0
-0.5 46 0
-0.5 46.5 0
-0.5 47 0
-0.5 47.5 0
-0.5 48 0
-0.5 48.5 0
-0.5 49 0
0 -0.5 0
0 0 0
0 0.5 0
0 1 0
0 1.5 0
0 2 0
0 2.5 0
0 3 0
0 3.5 0
0 4 0
0 4.5 0
0 5 0
0 5.5 0
0 6 0
0 6.5 0
0 7 0
0 7.5 0
0 8 0
0 8.5 0
0 9 0
0 9.5 0
0 10 0
0 10.5 0
0 11 0
0 11.5 0
0 12 0
0 12.5 0
0 13 0
0 13.5 0
0 14 0
0 14.5 0
0 15 0
0 15.5 0
0 16 0
0 16.5 0
0 17 0
0 17.5 0
0 18 0
0 18.5 0
0 19 0
0 19.5 0
0 20 0
0 20.5 0
0 21 0
0 21.5 0
0 22 0
0 22.5 0
0 23 0
0 23.5 0
0 24 0
0 24.5 0
0 25 0
0 25.5 0
0 26 0
0 26.5 0
0 27 0
0 27.5 0
0 28 0
0 28.5 0
0 29 0
0 29.5 0
0 30 0
0 30.5 0
0 31 0
0 31.5 0
0 32 0
0 32.5 0
0 33 0
0 33.5 0
0 34 0
0 34.5 0
0 35 0
0 35.5 0
0 36 0
0 36.5 0
0 37 0
0 37.5 0
0 38 0
0 38.5 0
0 39 0
0 39.5 0
0 40 0
0 40.5 0
0 41 0
0 41.5 0
0 42 0
0 42.5 0
0 43 0
0 43.5 0
0 44 0
0 44.5 0
0 45 0
0 45.5 0
0 46 0
0 46.5 0
0 47 0
0 47.5 0
0 48 0
0 48.5 0
0 49 0
0.5 -0.5 0
0.5 0 0
0.5 0.5 0
0.5 1 0
0.5 1.5 0
0.5 2 0
0.5 2.5 0
0.5 3 0
0.5 3.5 0
0.5 4 0
0.5 4.5 0
0.5 5 0
0.5 5.5 0
0.5 6 0
0.5 6.5 0
0.5 7 0
0.5 7.5 0
0.5 8 0
0.5 8.5 0
0.5 9 0
0.5 9.5 0
0.5 10 0
0.5 10.5 0
0.5 11 0
0.5 11.5 0
0.5 12 0
0.5 12.5 0
0.5 13 0
0.5 13.5 0
0.5 14 0
0.5 14.5 0
0.5 15 0
0.5 15.5 0
0.5 16 0
0.5 16.5 0
0.5 17 0
0.5 17.5 0
0.5 18 0
0.5 18.5 0
0.5 19 0
0.5 19.5 0
0.5 20 0
0.5 20.5 0
0.5 21 0
0.5 21.5 0
0.5 22 0
0.5 22.5 0
0.5 23 0
0.5 23.5 0
0.5 24 0
0.5 24.5 0
0.5 25 0
0.5 25.5 0
0.5 26 0
0.5 26.5 0
0.5 27 0
0.5 27.5 0
0.5 28 0
0.5 28.5 0
0.5 29 0
0.5 29.5 0
0.5 30 0
0.5 30.5 0
0.5 31 0
0.5 31.5 0
0.5 32 0
0.5 32.5 0
0.5 33 0
0.5 33.5 0
0.5 34 0
0.5 34.5 0
0.5 35 0
0.5 35.5 0
0.5 36 0
0.5 36.5 0
0.5 37 0
0.5 37.5 0
0.5 38 0
0.5 38.5 0
0.5 39 0
0.5 39.5 0
0.5 40 0
0.5 40.5 0
0.5 41 0
0.5 41.5 0
0.5 42 0
0.5 42.5 0
0.5 43 0
0.5 43.5 0
0.5 44 0
0.5 44.5 0
0.5 45 0
0.5 45.5 0
0.5 46 0
0.5 46.5 0
0.5 47 0
0.5 47.5 0
0.5 48 0
0.5 48.5 0
0.5 49 0
1 -0.5 0
1 0 0
1 0.5 0
1 1 0
1 1.5 0
1 2 0
1 2.5 0
1 3 0
1 3.5 0
1 4 0
1 4.5 0
1 5 0
1 5.5 0
1 6 0
1 6.5 0
1 7 0
1 7.5 0
1 8 0
1 8.5 0
1 9 0
1 9.5 0
1 10 0
1 10.5 0
1 11 0
1 11.5 0
1 12 0
1 12.5 0
1 13 0
1 13.5 0
1 14 0
1 14.5 0
1 15 0
1 15.5 0
1 16 0
1 16.5 0
1 17 0
1 17.5 0
1 18 0
1 18.5 0
1 19 0
1 19.5 0
1 20 0
1 20.5 0
1 21 0
1 21.5 0
1 22 0
1 22.5 0
1 23 0
1 23.5 0
1 24 0
1 24.5 0
1 25 0
1 25.5 0
1 26 0
1 26.5 0
1 27 0
1 27.5 0
1 28 0
1 28.5 0
1 29 0
1 29.5 0
1 30 0
1 30.5 0
1 31 0
1 31.5 0
1 32 0
1 32.5 0
1 33 0
1 33.5 0
1 34 0
1 34.5 0
1 35 0
1 35.5 0
1 36 0
1 36.5 0
1 37 0
1 37.5 0
1 38 0
1 38.5 0
1 39 0
1 39.5 0
1 40 0
1 40.5 0
1 41 0
1 41.5 0
1 42 0
1 42.5 0
1 43 0
1 43.5 0
1 44 0
1 44.5 0
1 45 0
1 45.5 0
1 46 0
1 46.5 0
1 47 0
1 47.5 0
1 48 0
1 48.5 0
1 49 0
1.5 -0.5 0
1.5 0 0
1.5 0.5 0
1.5 1 0
1.5 1.5 0
1.5 2 0
1.5 2.5 0
1.5 3 0
1.5 3.5 0
1.5 4 0
1.5 4.5 0
1.5 5 0
1.5 5.5 0
1.5 6 0
1.5 6.5 0
1.5 7 0
1.5 7.5 0
1.5 8 0
1.5 8.5 0
1.5 9 0
1.5 9.5 0
1.5 10 0
1.5 10.5 0
1.5 11 0
1.5 11.5 0
1.5 12 0
1.5 12.5 0
1.5 13 0
1.5 13.5 0
1.5 14 0
1.5 14.5 0
1.5 15 0
1.5 15.5 0
1.5 16 0
1.5 16.5 0
1.5 17 0
1.5 17.5 0
1.5 18 0
1.5 18.5 0
1.5 19 0
1.5 19.5 0
1.5 20 0
1.5 20.5 0
1.5 21 0
1.5 21.5 0
1.5 22 0
1.5 22.5 0
1.5 23 0
1.5 23.5 0
1.5 24 0
1.5 24.5 0
1.5 25 0
1.5 25.5 0
1.5 26 0
1.5 26.5 0
1.5 27 0
1.5 27.5 0
1.5 28 0
1.5 28.5 0
1.5 29 0
1.5 29.5 0
1.5 30 0
1.5 30.5 0
1.5 31 0
1.5 31.5 0
1.5 32 0
1.5 32.5 0
1.5 33 0
1.5 33.5 0
1.5 34 0
1.5 34.5 0
1.5 35 0
1.5 35.5 0
1.5 36 0
1.5 36.5 0
1.5 37 0
1.5 37.5 0
1.5 38 0
1.5 38.5 0
1.5 39 0
1.5 39.5 0
1.5 40 0
1.5 40.5 0
1.5 41 0
1.5 41.5 0
1.5 42 0
1.5 42.5 0
1.5 43 0
1.5 43.5 0
1.5 44 0
1.5 44.5 0
1.5 45 0
1.5 45.5 0
1.5 46 0
1.5 46.5 0
1.5 47 0
1.5 47.5 0
1.5 48 0
1.5 48.5 0
1.5 49 0
2 -0.5 0
2 0 0
2 0.5 0
2 1 0
2 1.5 0
2 2 0
2 2.5 0
2 3 0
2 3.5 0
2 4 0
2 4.5 0
2 5 0
2 5.5 0
2 6 0
2 6.5 0
2 7 0
2 7.5 0
2 8 0
2 8.5 0
2 9 0
2 9.5 0
2 10 0
2 10.5 0
2 11 0
2 11.5 0
2 12 0
2 12.5 0
2 13 0
2 13.5 0
2 14 0
2 14.5 0
2 15 0
2 15.5 0
2 16 0
2 16.5 0
2 17 0
2 17.5 0
2 18 0
2 18.5 0
2 19 0
2 19.5 0
2 20 0
2 20.5 0
2 21 0
2 21.5 0
2 22 0
2 22.5 0
2 23 0
2 23.5 0
2 24 0
2 24.5 0
2 25 0
2 25.5 0
2 26 0
2 26.5 0
2 27 0
2 27.5 0
2 28 0
2 28.5 0
2 29 0
2 29.5 0
2 30 0
2 30.5 0
2 31 0
2 31.5 0
2 32 0
2 32.5 0
2 33 0
2 33.5 0
2 34 0
2 34.5 0
2 35 0
2 35.5 0
2 36 0
2 36.5 0
2 37 0
2 37.5 0
2 38 0
2 38.5 0
2 39 0
2 39.5 0
2 40 0
2 40.5 0
2 41 0
2 41.5 0
2 42 0
2 42.5 0
2 43 0
2 43.5 0
2 44 0
2 44.5 0
2 45 0
2 45.5 0
2 46 0
2 46.5 0
2 47 0
2 47.5 0
2 48 0
2 48.5 0
2 49 0
2.5 -0.5 0
2.5 0 0
2.5 0.5 0
2.5 1 0
2.5 1.5 0
2.5 2 0
2.5 2.5 0
2.5 3 0
2.5 3.5 0
2.5 4 0
2.5 4.5 0
2.5 5 0
2.5 5.5 0
2.5 6 0
2.5 6.5 0
2.5 7 0
2.5 7.5 0
2.5 8 0
2.5 8.5 0
2.5 9 0
2.5 9.5 0
2.5 10 0
2.5 10.5 0
2.5 11 0
2.5 11.5 0
2.5 12 0
2.5 12.5 0
2.5 13 0
2.5 13.5 0
2.5 14 0
2.5 14.5 0
2.5 15 0
2.5 15.5 0
2.5 16 0
2.5 16.5 0
2.5 17 0
2.5 17.5 0
2.5 18 0
2.5 18.5 0
2.5 19 0
2.5 19.5 0
2.5 20 0
2.5 20.5 0
2.5 21 0
2.5 21.5 0
2.5 22 0
2.5 22.5 0
2.5 23 0
2.5 23.5 0
2.5 24 0
2.5 24.5 0
2.5 25 0
2.5 25.5 0
2.5 26 0
2.5 26.5 0
2.5 27 0
2.5 27.5 0
2.5 28 0
2.5 28.5 0
2.5 29 0
2.5 29.5 0
2.5 30 0
2.5 30.5 0
2.5 31 0
2.5 31.5 0
2.5 32 0
2.5 32.5 0
2.5 33 0
2.5 33.5 0
2.5 34 0
2.5 34.5 0
2.5 35 0
2.5 35.5 0
2.5 36 0
2.5 36.5 0
2.5 37 0
2.5 37.5 0
2.5 38 0
2.5 38.5 0
2.5 39 0
2.5 39.5 0
2.5 40 0
2.5 40.5 0
2.5 41 0
2.5 41.5 0
2.5 42 0
2.5 42.5 0
2.5 43 0
2.5 43.5 0
2.5 44 0
2.5 44.5 0
2.5 45 0
2.5 45.5 0
2.5 46 0
2.5 46.5 0
2.5 47 0
2.5 47.5 0
2.5 48 0
2.5 48.5 0
2.5 49 0
3 -0.5 0
3 0 0
3 0.5 0
3 1 0
3 1.5 0
3 2 0
3 2.5 0
3 3 0
3 3.5 0
3 4 0
3 4.5 0
3 5 0
3 5.5 0
3 6 0
3 6.5 0
3 7 0
3 7.5 0
3 8 0
3 8.5 0
3 9 0
3 9.5 0
3 10 0
3 10.5 0
3 11 0
3 11.5 0
3 12 0
3 12.5 0
3 13 0
3 13.5 0
3 14 0
3 14.5 0
3 15 0
3 15.5 0
3 16 0
3 16.5 0
3 17 0
3 17.5 0
3 18 0
3 18.5 0
3 19 0
3 19.5 0
3 20 0
3 20.5 0
3 21 0
3 21.5 0
3 22 0
3 22.5 0
3 23 0
3 23.5 0
3 24 0
3 24.5 0
3 25 0
3 25.5 0
3 26 0
3 26.5 0
3 27 0
3 27.5 0
3 28 0
3 28.5 0
3 29 0
3 29.5 0
3 30 0
3 30.5 0
3 31 0
3 31.5 0
3 32 0
3 32.5 0
3 33 0
3 33.5 0
3 34 0
3 34.5 0
3 35 0
3 35.5 0
3 36 0
3 36.5 0
3 37 0
3 37.5 0
3 38 0
3 38.5 0
3 39 0
3 39.5 0
3 40 0
3 40.5 0
3 41 0
3 41.5 0
3 42 0
3 42.5 0
3 43 0
3 43.5 0
3 44 0
3 44.5 0
3 45 0
3 45.5 0
3 46 0
3 46.5 0
3 47 0
3 47.5 0
3 48 0
3 48.5 0
3 49 0
3.5 -0.5 0
3.5 0 0
3.5 0.5 0
3.5 1 0
3.5 1.5 0
3.5 2 0
3.5 2.5 0
3.5 3 0
3.5 3.5 0
3.5 4 0
3.5 4.5 0
3.5 5 0
3.5 5.5 0
3.5 6 0
3.5 6.5 0
3.5 7 0
3.5 7.5 0
3.5 8 0
3.5 8.5 0
3.5 9 0
3.5 9.5 0
3.5 10 0
3.5 10.5 0
3.5 11 0
3.5 11.5 0
3.5 12 0
3.5 12.5 0
3.5 13 0
3.5 13.5 0
3.5 14 0
3.5 14.5 0
3.5 15 0
3.5 15.5 0
3.5 16 0
3.5 16.5 0
3.5 17 0
3.5 17.5 0
3.5 18 0
3.5 18.5 0
3.5 19 0
3.5 19.5 0
3.5 20 0
3.5 20.5 0
3.5 21 0
3.5 21.5 0
3.5 22 0
3.5 22.5 0
3.5 23 0
3.5 23.5 0
3.5 24 0
3.5 24.5 0
3.5 25 0
3.5 25.5 0
3.5 26 0
3.5 26.5 0
3.5 27 0
3.5 27.5 0
3.5 28 0
3.5 28.5 0
3.5 29 0
3.5 29.5 0
3.5 30 0
3.5 30.5 0
3.5 31 0
3.5 31.5 0
3.5 32 0
3.5 32.5 0
3.5 33 0
3.5 33.5 0
3.5 34 0
3.5 34.5 0
3.5 35 0
3.5 35.5 0
3.5 36 0
3.5 36.5 0
3.5 37 0
3.5 37.5 0
3.5 38 0
3.5 38.5 0
3.5 39 0
3.5 39.5 0
3.5 40 0
3.5 40.5 0
3.5 41 0
3.5 41.5 0
3.5 42 0
3.5 42.5 0
3.5 43 0
3.5 43.5 0
3.5 44 0
3.5 44.5 0
3.5 45 0
3.5 45.5 0
3.5 46 0
3.5 46.5 0
3.5 47 0
3.5 47.5 0
3.5 48 0
3.5 48.5 0
3.5 49 0
4 -0.5 0
4 0 0
4 0.5 0
4 1 0
4 1.5 0
4 2 0
4 2.5 0
4 3 0
4 3.5 0
4 4 0
4 4.5 0
4 5 0
4 5.5 0
4 6 0
4 6.5 0
4 7 0
4 7.5 0
4 8 0
4 8.5 0
4 9 0
4 9.5 0
4 10 0
4 10.5 0
4 11 0
4 11.5 0
4 12 0
4 12.5 0
4 13 0
4 13.5 0
4 14 0
4 14.5 0
4 15 0
4 15.5 0
4 16 0
4 16.5 0
4 17 0
4 17.5 0
4 18 0
4 18.5 0
4 19 0
4 19.5 0
4 20 0
4 20.5 0
4 21 0
4 21.5 0
4 22 0
4 22.5 0
4 23 0
4 23.5 0
4 24 0
4 24.5 0
4 25 0
4 25.5 0
4 26 0
4 26.5 0
4 27 0
4 27.5 0
4 28 0
4 28.5 0
4 29 0
4 29.5 0
4 30 0
4 30.5 0
4 31 0
4 31.5 0
4 32 0
4 32.5 0
4 33 0
4 33.5 0
4 34 0
4 34.5 0
4 35 0
4 35.5 0
4 36 0
4 36.5 0
4 37 0
4 37.5 0
4 38 0
4 38.5 0
4 39 0
4 39.5 0
4 40 0
4 40.5 0
4 41 0
4 41.5 0
4 42 0
4 42.5 0
4 43 0
4 43.5 0
4 44 0
4 44.5 0
4 45 0
4 45.5 0
4 46 0
4 46.5 0
4 47 0
4 47.5 0
4 48 0
4 48.5 0
4 49 0
4.5 -0.5 0
4.5 0 0
4.5 0.5 0
4.5 1 0
4.5 1.5 0
4.5 2 0
4.5 2.5 0
4.5 3 0
4.5 3.5 0
4.5 4 0
4.5 4.5 0
4.5 5 0
4.5 5.5 0
4.5 6 0
4.5 6.5 0
4.5 7 0
4.5 7.5 0
4.5 8 0
4.5 8.5 0
4.5 9 0
4.5 9.5 0
4.5 10 0
4.5 10.5 0
4.5 11 0
4.5 11.5 0
4.5 12 0
4.5 12.5 0
4.5 13 0
4.5 13.5 0
4.5 14 0
4.5 14.5 0
4.5 15 0
4.5 15.5 0
4.5 16 0
4.5 16.5 0
4.5 17 0
4.5 17.5 0
4.5 18 0
4.5 18.5 0
4.5 19 0
4.5 19.5 0
4.5 20 0
4.5 20.5 0
4.5 21 0
4.5 21.5 0
4.5 22 0
4.5 22.5 0
4.5 23 0
4.5 23.5 0
4.5 24 0
4.5 24.5 0
4.5 25 0
4.5 25.5 0
4.5 26 0
4.5 26.5 0
4.5 27 0
4.5 27.5 0
4.5 28 0
4.5 28.5 0
4.5 29 0
4.5 29.5 0
4.5 30 0
4.5 30.5 0
4.5 31 0
4.5 31.5 0
4.5 32 0
4.5 32.5 0
4.5 33 0
4.5 33.5 0
4.5 34 0
4.5 34.5 0
4.5 35 0
4.5 35.5 0
4.5 36 0
4.5 36.5 0
4.5 37 0
4.5 37.5 0
4.5 38 0
4.5 38.5 0
4.5 39 0
4.5 39.5 0
4.5 40 0
4.5 40.5 0
4.5 41 0
4.5 41.5 0
4.5 42 0
4.5 42.5 0
4.5 43 0
4.5 43.5 0
4.5 44 0
4.5 44.5 0
4.5 45 0
4.5 45.5 0
4.5 46 0
4.5 46.5 0
4.5 47 0
4.5 47.5 0
4.5 48 0
4.5 48.5 0
4.5 49 0
5 -0.5 0
[...]
POINT_DATA 10000
SCALARS CON float 1
LOOKUP_TABLE default
1e-05
1e-05
1e-05
1e-05
1e-05
1e-05
1e-05
1e-05
1e-05
1e-05
1e-05
1e-05
1e-05
1e-05
1e-05
1e-05
1e-05
1e-05
1e-05
1e-05
1e-05
1e-05
1e-05
1e-05
1e-05
1e-05
1e-05
1e-05
1e-05
1e-05
1e-05
1e-05
1e-05
1e-05
1e-05
1e-05
1e-05
1e-05
1e-05
1e-05
1e-05
1e-05
1e-05
1e-05
1e-05
1e-05
1e-05
1e-05
1e-05
1e-05
1e-05
1e-05
1e-05
1e-05
1e-05
1e-05
1e-05
1e-05
1e-05
1e-05
1e-05
1e-05
1e-05
1e-05
1e-05
1e-05
1e-05
1e-05
1e-05
1e-05
1e-05
1e-05
1e-05
1e-05
1e-05
1e-05
1e-05
1e-05
1e-05
1e-05
1e-05
1e-05
1e-05
1e-05
1e-05
1e-05
1e-05
1e-05
1e-05
1e-05
1e-05
1e-05
1e-05
1e-05
1e-05
1e-05
1e-05
1e-05
1e-05
1e-05
1e-05
1e-05
1e-05
1e-05
1e-05
1e-05
1e-05
1e-05
1e-05
1e-05
1e-05
1e-05
1e-05
1e-05
1e-05
1e-05
1e-05
1e-05
1e-05
1e-05
1e-05
1e-05
1e-05
1e-05
1e-05
1e-05
1e-05
1e-05
1e-05
1e-05
1e-05
1e-05
1e-05
1e-05
1e-05
1e-05
1e-05
1e-05
1e-05
1e-05
1e-05
1e-05
1e-05
1e-05
1e-05
1e-05
1e-05
1e-05
1e-05
1e-05
1e-05
1e-05
1e-05
1e-05
1e-05
1e-05
1e-05
1e-05
1e-05
1e-05
1e-05
1e-05
1e-05
1e-05
1e-05
1e-05
1e-05
1e-05
1e-05
1e-05
1e-05
1e-05
1e-05
1e-05
1e-05
1e-05
1e-05
1e-05
1e-05
1e-05
1e-05
1e-05
1e-05
1e-05
1e-05
1e-05
1e-05
1e-05
1e-05
1e-05
1e-05
1e-05
1e-05
1e-05
1e-05
1e-05
1e-05
1e-05
1e-05
1e-05
1e-05
1e-05
1e-05
1e-05
1e-05
1e-05
1e-05
1e-05
1e-05
1e-05
1e-05
1e-05
1e-05
1e-05
1e-05
1e-05
1e-05
1e-05
1e-05
1e-05
1e-05
1e-05
1e-05
1e-05
1e-05
1e-05
1e-05
1e-05
1e-05
1e-05
1e-05
1e-05
1e-05
1e-05
1e-05
1e-05
1e-05
1e-05
1e-05
1e-05
1e-05
1e-05
1e-05
1e-05
1e-05
1e-05
1e-05
1e-05
1e-05
1e-05
1e-05
1e-05
1e-05
1e-05
1e-05
1e-05
1e-05
1e-05
1e-05
1e-05
1e-05
1e-05
1e-05
1e-05
1e-05
1e-05
1e-05
1e-05
1e-05
1e-05
1e-05
1e-05
1e-05
1e-05
1e-05
1e-05
1e-05
1e-05
1e-05
1e-05
1e-05
1e-05
1e-05
1e-05
1e-05
1e-05
1e-05
1e-05
1e-05
1e-05
1e-05
1e-05
1e-05
1e-05
1e-05
1e-05
1e-05
1e-05
1e-05
1e-05
1e-05
1e-05
1e-05
1e-05
1e-05
1e-05
1e-05
1e-05
1e-05
1e-05
1e-05
1e-05
1e-05
1e-05
1e-05
1e-05
1e-05
1e-05
1e-05
1e-05
1e-05
1e-05
1e-05
1e-05
1e-05
1e-05
1e-05
1e-05
1e-05
1e-05
1e-05
1e-05
1e-05
1e-05
1e-05
1e-05
1e-05
1e-05
1e-05
1e-05
1e-05
1e-05
1e-05
1e-05
1e-05
1e-05
1e-05
1e-05
1e-05
1e-05
1e-05
1e-05
1e-05
1e-05
1e-05
1e-05
1e-05
1e-05
1e-05
1e-05
1e-05
1e-05
1e-05
1e-05
1e-05
1e-05
1e-05
1e-05
1e-05
1e-05
1e-05
1e-05
1e-05
1e-05
1e-05
1e-05
1e-05
1e-05
1e-05
1e-05
1e-05
1e-05
1e-05
1e-05
1e-05
1e-05
1e-05
1e-05
1e-05
1e-05
1e-05
1e-05
1e-05
1e-05
1e-05
1e-05
1e-05
1e-05
1e-05
1e-05
1e-05
1e-05
1e-05
1e-05
1e-05
1e-05
1e-05
1e-05
1e-05
1e-05
1e-05
1e-05
1e-05
1e-05
1e-05
1e-05
1e-05
1e-05
1e-05
1e-05
1e-05
1e-05
1e-05
1e-05
1e-05
1e-05
1e-05
1e-05
1e-05
1e-05
1e-05
1e-05
1e-05
1e-05
1e-05
1e-05
1e-05
1e-05
1e-05
1e-05
1e-05
1e-05
1e-05
1e-05
1e-05
1e-05
1e-05
1e-05
1e-05
1e-05
1e-05
1e-05
1e-05
1e-05
1e-05
1e-05
1e-05
1e-05
1e-05
1e-05
1e-05
1e-05
1e-05
1e-05
1e-05
1e-05
1e-05
1e-05
1e-05
1e-05
1e-05
1e-05
1e-05
1e-05
1e-05
1e-05
1e-05
1e-05
1e-05
1e-05
1e-05
1e-05
1e-05
1e-05
1e-05
1e-05
1e-05
1e-05
1e-05
1e-05
1e-05
1e-05
1e-05
1e-05
1e-05
1e-05
1e-05
1e-05
1e-05
1e-05
1e-05
1e-05
1e-05
1e-05
1e-05
1e-05
1e-05
1e-05
1e-05
1e-05
1e-05
1e-05
1e-05
1e-05
1e-05
1e-05
1e-05
1e-05
1e-05
1e-05
1e-05
1e-05
1e-05
1e-05
1e-05
1e-05
1e-05
1e-05
1e-05
1e-05
1e-05
1e-05
1e-05
1e-05
1e-05
1e-05
1e-05
1e-05
1e-05
1e-05
1e-05
1e-05
1e-05
1e-05
1e-05
1e-05
1e-05
1e-05
1e-05
1e-05
1e-05
1e-05
1e-05
1e-05
1e-05
1e-05
1e-05
1e-05
1e-05
1e-05
1e-05
1e-05
1e-05
1e-05
1e-05
1e-05
1e-05
1e-05
1e-05
1e-05
1e-05
1e-05
1e-05
1e-05
1e-05
1e-05
1e-05
1e-05
1e-05
1e-05
1e-05
1e-05
1e-05
1e-05
1e-05
1e-05
1e-05
1e-05
1e-05
1e-05
1e-05
1e-05
1e-05
1e-05
1e-05
1e-05
1e-05
1e-05
1e-05
1e-05
1e-05
1e-05
1e-05
1e-05
1e-05
1e-05
1e-05
1e-05
1e-05
1e-05
1e-05
1e-05
1e-05
1e-05
1e-05
1e-05
1e-05
1e-05
1e-05
1e-05
1e-05
1e-05
1e-05
1e-05
1e-05
1e-05
1e-05
1e-05
1e-05
1e-05
1e-05
1e-05
1e-05
1e-05
1e-05
1e-05
1e-05
1e-05
1e-05
1e-05
1e-05
1e-05
1e-05
1e-05
1e-05
1e-05
1e-05
1e-05
1e-05
1e-05
1e-05
1e-05
1e-05
1e-05
1e-05
1e-05
1e-05
1e-05
1e-05
1e-05
1e-05
1e-05
1e-05
1e-05
1e-05
1e-05
1e-05
1e-05
1e-05
1e-05
1e-05
1e-05
1e-05
1e-05
1e-05
1e-05
1e-05
1e-05
1e-05
1e-05
1e-05
1e-05
1e-05
1e-05
1e-05
1e-05
1e-05
1e-05
1e-05
1e-05
1e-05
1e-05
1e-05
1e-05
1e-05
1e-05
1e-05
1e-05
1e-05
1e-05
1e-05
1e-05
1e-05
1e-05
1e-05
1e-05
1e-05
1e-05
1e-05
1e-05
1e-05
1e-05
1e-05
1e-05
1e-05
1e-05
1e-05
1e-05
1e-05
1e-05
1e-05
1e-05
1e-05
1e-05
1e-05
1e-05
1e-05
1e-05
1e-05
1e-05
1e-05
1e-05
1e-05
1e-05
1e-05
1e-05
1e-05
1e-05
1e-05
1e-05
1e-05
1e-05
1e-05
1e-05
1e-05
1e-05
1e-05
1e-05
1e-05
1e-05
1e-05
1e-05
1e-05
1e-05
1e-05
1e-05
1e-05
1e-05
1e-05
1e-05
1e-05
1e-05
1e-05
1e-05
1e-05
1e-05
1e-05
1e-05
1e-05
1e-05
1e-05
1e-05
1e-05
1e-05
1e-05
1e-05
1e-05
1e-05
1e-05
1e-05
1e-05
1e-05
1e-05
1e-05
1e-05
1e-05
1e-05
1e-05
1e-05
1e-05
1e-05
1e-05
1e-05
1e-05
1e-05
1e-05
1e-05
1e-05
1e-05
1e-05
1e-05
1e-05
1e-05
1e-05
1e-05
1e-05
1e-05
1e-05
1e-05
1e-05
1e-05
1e-05
1e-05
1e-05
1e-05
1e-05
1e-05
1e-05
1e-05
1e-05
1e-05
1e-05
1e-05
1e-05
1e-05
1e-05
1e-05
1e-05
1e-05
1e-05
1e-05
1e-05
1e-05
1e-05
1e-05
1e-05
1e-05
1e-05
1e-05
1e-05
1e-05
1e-05
1e-05
1e-05
1e-05
1e-05
1e-05
1e-05
1e-05
1e-05
1e-05
1e-05
1e-05
1e-05
1e-05
1e-05
1e-05
1e-05
1e-05
1e-05
1e-05
1e-05
1e-05
1e-05
1e-05
1e-05
1e-05
1e-05
1e-05
1e-05
1e-05
1e-05
1e-05
1e-05
1e-05
1e-05
1e-05
1e-05
1e-05
1e-05
1e-05
1e-05
1e-05
1e-05
1e-05
1e-05
1e-05
1e-05
1e-05
1e-05
1e-05
1e-05
1e-05
1e-05
1e-05
1e-05
1e-05
1e-05
1e-05
1e-05
1e-05
1e-05
1e-05
1e-05
1e-05
1e-05
1e-05
1e-05
1e-05
1e-05
1e-05
1e-05
1e-05
1e-05
1e-05
1e-05
1e-05
1e-05
1e-05
1e-05
1e-05
1e-05
1e-05
1e-05
1e-05
1e-05
1e-05
1e-05
1e-05
1e-05
1e-05
1e-05
1e-05
1e-05
1e-05
1e-05
1e-05
1e-05
1e-05
1e-05
1e-05
1e-05
1e-05
1e-05
1e-05
1e-05
1e-05
1e-05
1e-05
1e-05
1e-05
1e-05
1e-05
1e-05
1e-05
1e-05
1e-05
1e-05
1e-05
1e-05
1e-05
1e-05
1e-05
1e-05
1e-05
1e-05
1e-05
1e-05
1e-05
1e-05
1e-05
1e-05
1e-05
1e-05
1e-05
1e-05
1e-05
1e-05
1e-05
1e-05
1e-05
1e-05
1e-05
1e-05
1e-05
1e-05
1e-05
1e-05
1e-05
1e-05
1e-05
1e-05
1e-05
1e-05
1e-05
1e-05
1e-05
1e-05
1e-05
1e-05
1e-05
1e-05
1e-05
1e-05
1e-05
1e-05
1e-05
1e-05
1e-05
1e-05
1e-05
1e-05
1e-05
1e-05
1e-05
1e-05
1e-05
1e-05
1e-05
1e-05
1e-05
1e-05
1e-05
1e-05
1e-05
1e-05
1e-05
1e-05
1e-05
1e-05
1e-05
1e-05
1e-05
1e-05
1e-05
1e-05
1e-05
1e-05
1e-05
1e-05
1e-05
1e-05
1e-05
1e-05
1e-05
1e-05
1e-05
1e-05
1e-05
1e-05
1e-05
1e-05
1e-05
1e-05
1e-05
1e-05
1e-05
1e-05
1e-05
1e-05
1e-05
1e-05
1e-05
1e-05
1e-05
1e-05
1e-05
1e-05
1e-05
1e-05
1e-05
1e-05
1e-05
1e-05
1e-05
1e-05
1e-05
1e-05
1e-05
1e-05
1e-05
1e-05
1e-05
1e-05
1e-05
1e-05
1e-05
1e-05
1e-05
1e-05
1e-05
1e-05
1e-05
1e-05
1e-05
1e-05
1e-05
1e-05
1e-05
1e-05
1e-05
1e-05
1e-05
1e-05
1e-05
1e-05
1e-05
1e-05
1e-05
1e-05
1e-05
1e-05
1e-05
1e-05
1e-05
1e-05
1e-05
1e-05
1e-05
1e-05
1e-05
1e-05
1e-05
1e-05
1e-05
1e-05
1e-05
1e-05
1e-05
1e-05
1e-05
1e-05
1e-05
1e-05
1e-05
1e-05
1e-05
1e-05
1e-05
1e-05
1e-05
1e-05
1e-05
1e-05
1e-05
1e-05
1e-05
1e-05
1e-05
1e-05
1e-05
1e-05
1e-05
1e-05
1e-05
1e-05
1e-05
1e-05
1e-05
1e-05
1e-05
1e-05
1e-05
1e-05
1e-05
1e-05
1e-05
1e-05
1e-05
1e-05
1e-05
1e-05
1e-05
1e-05
1e-05
1e-05
1e-05
1e-05
1e-05
1e-05
1e-05
1e-05
1e-05
1e-05
1e-05
1e-05
1e-05
1e-05
1e-05
1e-05
1e-05
1e-05
1e-05
1e-05
1e-05
1e-05
1e-05
1e-05
1e-05
1e-05
1e-05
1e-05
1e-05
1e-05
1e-05
1e-05
1e-05
1e-05
1e-05
1e-05
1e-05
1e-05
1e-05
1e-05
1e-05
1e-05
1e-05
1e-05
1e-05
1e-05
1e-05
1e-05
1e-05
1e-05
1e-05
1e-05
1e-05
1e-05
1e-05
1e-05
1e-05
1e-05
1e-05
1e-05
1e-05
1e-05
1e-05
1e-05
1e-05
1e-05
1e-05
1e-05
1e-05
1e-05
1e-05
1e-05
1e-05
1e-05
1e-05
1e-05
1e-05
1e-05
1e-05
1e-05
1e-05
1e-05
1e-05
1e-05
1e-05
1e-05
1e-05
1e-05
1e-05
1e-05
1e-05
1e-05
1e-05
1e-05
1e-05
1e-05
1e-05
1e-05
1e-05
1e-05
1e-05
1e-05
1e-05
1e-05
1e-05
1e-05
1e-05
1e-05
1e-05
1e-05
1e-05
1e-05
1e-05
1e-05
1e-05
1e-05
1e-05
1e-05
1e-05
1e-05
1e-05
1e-05
1e-05
1e-05
1e-05
1e-05
1e-05
1e-05
1e-05
1e-05
1e-05
1e-05
1e-05
1e-05
1e-05
1e-05
1e-05
1e-05
1e-05
1e-05
1e-05
1e-05
1e-05
1e-05
1e-05
1e-05
1e-05
1e-05
1e-05
1e-05
1e-05
1e-05
1e-05
1e-05
1e-05
1e-05
1e-05
1e-05
1e-05
1e-05
1e-05
1e-05
1e-05
1e-05
1e-05
1e-05
1e-05
1e-05
1e-05
1e-05
1e-05
1e-05
1e-05
1e-05
1e-05
1e-05
1e-05
1e-05
1e-05
1e-05
1e-05
1e-05
1e-05
1e-05
1e-05
1e-05
1e-05
1e-05
1e-05
1e-05
1e-05
1e-05
1e-05
1e-05
1e-05
1e-05
1e-05
1e-05
1e-05
1e-05
1e-05
1e-05
1e-05
1e-05
1e-05
1e-05
1e-05
1e-05
1e-05
1e-05
1e-05
1e-05
1e-05
1e-05
1e-05
1e-05
1e-05
1e-05
1e-05
1e-05
1e-05
1e-05
1e-05
1e-05
1e-05
1e-05
1e-05
1e-05
1e-05
1e-05
1e-05
1e-05
1e-05
1e-05
1e-05
1e-05
1e-05
1e-05
1e-05
1e-05
1e-05
1e-05
1e-05
1e-05
1e-05
1e-05
1e-05
1e-05
1e-05
1e-05
1e-05
1e-05
1e-05
1e-05
1e-05
1e-05
1e-05
1e-05
1e-05
1e-05
1e-05
1e-05
1e-05
1e-05
1e-05
1e-05
1e-05
1e-05
1e-05
1e-05
1e-05
1e-05
1e-05
1e-05
1e-05
1e-05
1e-05
1e-05
1e-05
1e-05
1e-05
1e-05
1e-05
1e-05
1e-05
1e-05
1e-05
1e-05
1e-05
1e-05
1e-05
1e-05
1e-05
1e-05
1e-05
1e-05
1e-05
1e-05
1e-05
1e-05
1e-05
1e-05
1e-05
1e-05
1e-05
1e-05
1e-05
1e-05
1e-05
1e-05
1e-05
1e-05
1e-05
1e-05
1e-05
1e-05
1e-05
1e-05
1e-05
1e-05
1e-05
1e-05
1e-05
1e-05
1e-05
1e-05
1e-05
1e-05
1e-05
1e-05
1e-05
1e-05
1e-05
1e-05
1e-05
1e-05
1e-05
1e-05
1e-05
1e-05
1e-05
1e-05
1e-05
1e-05
1e-05
1e-05
1e-05
1e-05
1e-05
1e-05
1e-05
1e-05
1e-05
1e-05
1e-05
1e-05
1e-05
1e-05
1e-05
1e-05
1e-05
1e-05
1e-05
1e-05
1e-05
1e-05
1e-05
1e-05
1e-05
1e-05
1e-05
1e-05
1e-05
1e-05
1e-05
1e-05
1e-05
1e-05
1e-05
1e-05
1e-05
1e-05
1e-05
1e-05
1e-05
1e-05
1e-05
1e-05
1e-05
1e-05
1e-05
1e-05
1e-05
1e-05
1e-05
1e-05
1e-05
1e-05
1e-05
1e-05
1e-05
1e-05
1e-05
1e-05
1e-05
1e-05
1e-05
1e-05
1e-05
1e-05
1e-05
1e-05
1e-05
1e-05
1e-05
1e-05
1e-05
1e-05
1e-05
1e-05
1e-05
1e-05
1e-05
1e-05
1e-05
1e-05
1e-05
1e-05
1e-05
1e-05
1e-05
1e-05
1e-05
1e-05
1e-05
1e-05
1e-05
1e-05
1e-05
1e-05
1e-05
1e-05
1e-05
1e-05
1e-05
1e-05
1e-05
1e-05
1e-05
1e-05
1e-05
1e-05
1e-05
1e-05
1e-05
1e-05
1e-05
1e-05
1e-05
1e-05
1e-05
1e-05
1e-05
1e-05
1e-05
1e-05
1e-05
1e-05
1e-05
1e-05
1e-05
1e-05
1e-05
1e-05
1e-05
1e-05
1e-05
1e-05
1e-05
1e-05
1e-05
1e-05
1e-05
1e-05
1e-05
1e-05
1e-05
1e-05
1e-05
1e-05
1e-05
1e-05
1e-05
1e-05
1e-05
1e-05
1e-05
1e-05
1e-05
1e-05
1e-05
1e-05
1e-05
1e-05
1e-05
1e-05
1e-05
1e-05
1e-05
1e-05
1e-05
1e-05
1e-05
1e-05
1e-05
1e-05
1e-05
1e-05
1e-05
1e-05
1e-05
1e-05
1e-05
1e-05
1e-05
1e-05
1e-05
1e-05
1e-05
1e-05
1e-05
1e-05
1e-05
1e-05
1e-05
1e-05
1e-05
1e-05
1e-05
1e-05
1e-05
1e-05
1e-05
1e-05
1e-05
1e-05
1e-05
1e-05
1e-05
1e-05
1e-05
1e-05
1e-05
1e-05
1e-05
1e-05
1e-05
1e-05
1e-05
1e-05
1e-05
1e-05
1e-05
1e-05
1e-05
1e-05
1e-05
1e-05
1e-05
1e-05
1e-05
1e-05
1e-05
1e-05
1e-05
1e-05
1e-05
1e-05
1e-05
1e-05
1e-05
1e-05
1e-05
1e-05
1e-05
1e-05
1e-05
1e-05
1e-05
1e-05
1e-05
1e-05
1e-05
1e-05
1e-05
1e-05
1e-05
1e-05
1e-05
1e-05
1e-05
1e-05
1e-05
1e-05
1e-05
1e-05
1e-05
1e-05
1e-05
1e-05
1e-05
1e-05
1e-05
1e-05
1e-05
1e-05
1e-05
1e-05
1e-05
1e-05
1e-05
1e-05
1e-05
1e-05
1e-05
1e-05
1e-05
1e-05
1e-05
1e-05
1e-05
1e-05
1e-05
1e-05
1e-05
1e-05
1e-05
1e-05
1e-05
1e-05
1e-05
1e-05
1e-05
1e-05
1e-05
1e-05
1e-05
1e-05
1e-05
1e-05
1e-05
1e-05
1e-05
1e-05
1e-05
1e-05
1e-05
1e-05
1e-05
1e-05
1e-05
1e-05
1e-05
1e-05
1e-05
1e-05
1e-05
1e-05
1e-05
1e-05
1e-05
1e-05
1e-05
1e-05
1e-05
1e-05
1e-05
1e-05
1e-05
1e-05
1e-05
1e-05
1e-05
1e-05
1e-05
1e-05
1e-05
1e-05
1e-05
1e-05
1e-05
1e-05
1e-05
1e-05
1e-05
1e-05
1e-05
1e-05
1e-05
1e-05
1e-05
1e-05
1e-05
1e-05
1e-05
1e-05
1e-05
1e-05
1e-05
1e-05
1e-05
1e-05
1e-05
1e-05
1e-05
1e-05
1e-05
1e-05
1e-05
1e-05
1e-05
1e-05
1e-05
1e-05
1e-05
1e-05
1e-05
1e-05
1e-05
1e-05
1e-05
1e-05
1e-05
1e-05
1e-05
1e-05
1e-05
1e-05
1e-05
1e-05
1e-05
1e-05
1e-05
1e-05
1e-05
1e-05
1e-05
1e-05
1e-05
1e-05
1e-05
1e-05
1e-05
1e-05
1e-05
1e-05
1e-05
1e-05
1e-05
1e-05
1e-05
1e-05
1e-05
1e-05
1e-05
1e-05
1e-05
1e-05
1e-05
1e-05
1e-05
1e-05
1e-05
1e-05
1e-05
1e-05
1e-05
1e-05
1e-05
1e-05
1e-05
1e-05
1e-05
1e-05
1e-05
1e-05
1e-05
1e-05
1e-05
1e-05
1e-05
1e-05
1e-05
1e-05
1e-05
1e-05
1e-05
1e-05
1e-05
1e-05
1e-05
1e-05
1e-05
1e-05
1e-05
1e-05
1e-05
1e-05
1e-05
1e-05
1e-05
1e-05
1e-05
1e-05
1e-05
1e-05
1e-05
1e-05
1e-05
1e-05
1e-05
1e-05
1e-05
1e-05
1e-05
1e-05
1e-05
1e-05
1e-05
1e-05
1e-05
1e-05
1e-05
1e-05
1e-05
1e-05
1e-05
1e-05
1e-05
1e-05
1e-05
1e-05
1e-05
1e-05
1e-05
1e-05
1e-05
1e-05
1e-05
1e-05
1e-05
1e-05
1e-05
1e-05
1e-05
1e-05
1e-05
1e-05
1e-05
1e-05
1e-05
1e-05
1e-05
1e-05
1e-05
1e-05
1e-05
1e-05
1e-05
1e-05
1e-05
1e-05
1e-05
1e-05
1e-05
1e-05
1e-05
1e-05
1e-05
1e-05
1e-05
1e-05
1e-05
1e-05
1e-05
1e-05
1e-05
1e-05
1e-05
1e-05
1e-05
1e-05
1e-05
1e-05
1e-05
1e-05
1e-05
1e-05
1e-05
1e-05
1e-05
1e-05
1e-05
1e-05
1e-05
1e-05
1e-05
1e-05
1e-05
1e-05
1e-05
1e-05
1e-05
1e-05
1e-05
1e-05
1e-05
1e-05
1e-05
1e-05
1e-05
1e-05
1e-05
1e-05
1e-05
1e-05
1e-05
1e-05
1e-05
1e-05
1e-05
1e-05
1e-05
1e-05
1e-05
1e-05
1e-05
1e-05
1e-05
1e-05
1e-05
1e-05
1e-05
1e-05
1e-05
1e-05
1e-05
1e-05
1e-05
1e-05
1e-05
1e-05
1e-05
1e-05
1e-05
1e-05
1e-05
1e-05
1e-05
1e-05
1e-05
1e-05
1e-05
1e-05
1e-05
1e-05
1e-05
1e-05
1e-05
1e-05
1e-05
1e-05
1e-05
1e-05
1e-05
1e-05
1e-05
1e-05
1e-05
1e-05
1e-05
1e-05
1e-05
1e-05
1e-05
1e-05
1e-05
1e-05
1e-05
1e-05
1e-05
1e-05
1e-05
1e-05
1e-05
1e-05
1e-05
1e-05
1e-05
1e-05
1e-05
1e-05
1e-05
1e-05
1e-05
1e-05
1e-05
1e-05
1e-05
1e-05
1e-05
1e-05
1e-05
1e-05
1e-05
1e-05
1e-05
1e-05
1e-05
1e-05
1e-05
1e-05
1e-05
1e-05
1e-05
1e-05
1e-05
1e-05
1e-05
1e-05
1e-05
1e-05
1e-05
1e-05
1e-05
1e-05
1e-05
1e-05
1e-05
1e-05
1e-05
1e-05
1e-05
1e-05
1e-05
1e-05
1e-05
1e-05
1e-05
1e-05
1e-05
1e-05
1e-05
1e-05
1e-05
1e-05
1e-05
1e-05
1e-05
1e-05
1e-05
1e-05
1e-05
1e-05
1e-05
1e-05
1e-05
1e-05
1e-05
1e-05
1e-05
1e-05
1e-05
1e-05
1e-05
1e-05
1e-05
1e-05
1e-05
1e-05
1e-05
1e-05
1e-05
1e-05
1e-05
1e-05
1e-05
1e-05
1e-05
1e-05
1e-05
1e-05
1e-05
1e-05
1e-05
1e-05
1e-05
1e-05
1e-05
1e-05
1e-05
1e-05
1e-05
1e-05
1e-05
1e-05
1e-05
1e-05
1e-05
1e-05
1e-05
1e-05
1e-05
1e-05
1e-05
1e-05
1e-05
1e-05
1e-05
1e-05
1e-05
1e-05
1e-05
1e-05
1e-05
1e-05
1e-05
1e-05
1e-05
1e-05
1e-05
1e-05
1e-05
1e-05
1e-05
1e-05
1e-05
1e-05
1e-05
1e-05
1e-05
1e-05
1e-05
1e-05
1e-05
1e-05
1e-05
1e-05
1e-05
1e-05
1e-05
1e-05
1e-05
1e-05
1e-05
1e-05
1e-05
1e-05
1e-05
1e-05
1e-05
1e-05
1e-05
1e-05
1e-05
1e-05
1e-05
1e-05
1e-05
1e-05
1e-05
1e-05
1e-05
1e-05
1e-05
1e-05
1e-05
1e-05
1e-05
1e-05
1e-05
1e-05
1e-05
1e-05
1e-05
1e-05
1e-05
1e-05
1e-05
1e-05
1e-05
1e-05
1e-05
1e-05
1e-05
1e-05
1e-05
1e-05
1e-05
1e-05
1e-05
1e-05
1e-05
1e-05
1e-05
1e-05
1e-05
1e-05
1e-05
1e-05
1e-05
1e-05
1e-05
1e-05
1e-05
1e-05
1e-05
1e-05
1e-05
1e-05
1e-05
1e-05
1e-05
1e-05
1e-05
1e-05
1e-05
1e-05
1e-05
1e-05
1e-05
1e-05
1e-05
1e-05
1e-05
1e-05
1e-05
1e-05
1e-05
1e-05
1e-05
1e-05
1e-05
1e-05
1e-05
1e-05
1e-05
1e-05
1e-05
1e-05
1e-05
1e-05
1e-05
1e-05
1e-05
1e-05
1e-05
1e-05
1e-05
1e-05
1e-05
1e-05
1.07543e-05
1.37547e-05
1.79765e-05
2.16586e-05
2.31316e-05
2.17089e-05
1.80582e-05
1.38363e-05
1.08024e-05
1e-05
1e-05
1e-05
1e-05
1e-05
1e-05
1e-05
1e-05
1e-05
1e-05
1e-05
1e-05
1e-05
1e-05
1e-05
1e-05
1e-05
1e-05
1e-05
1e-05
1e-05
1e-05
1e-05
1e-05
1e-05
1e-05
1e-05
1e-05
1e-05
1e-05
1e-05
1e-05
1e-05
1e-05
1e-05
1e-05
1e-05
1e-05
1e-05
1e-05
1e-05
1e-05
1e-05
1e-05
1e-05
1e-05
1e-05
1e-05
1e-05
1e-05
1e-05
1e-05
1e-05
1e-05
1e-05
1e-05
1e-05
1e-05
1e-05
1e-05
1e-05
1e-05
1e-05
1e-05
1e-05
1e-05
1e-05
1e-05
1e-05
1e-05
1e-05
1e-05
1e-05
1e-05
1e-05
1e-05
1e-05
1e-05
1e-05
1e-05
1e-05
1e-05
1e-05
1e-05
1e-05
1e-05
1e-05
1.07831e-05
1.99549e-05
4.162e-05
7.64714e-05
0.000121262
0.000169035
0.00021102
0.000239633
0.000250173
0.000241025
0.000213552
0.000172238
0.000124537
7.92738e-05
4.36174e-05
2.10634e-05
1.11116e-05
1e-05
1e-05
1e-05
1e-05
1e-05
1e-05
1e-05
1e-05
1e-05
1e-05
1e-05
1e-05
1e-05
1e-05
1e-05
1e-05
1e-05
1e-05
1e-05
1e-05
1e-05
1e-05
1e-05
1e-05
1e-05
1e-05
1e-05
1e-05
1e-05
1e-05
1e-05
1e-05
1e-05
1e-05
1e-05
1e-05
1e-05
1e-05
1e-05
1e-05
1e-05
1e-05
1e-05
1e-05
1e-05
1e-05
1e-05
1e-05
1e-05
1e-05
1e-05
1e-05
1e-05
1e-05
1e-05
1e-05
1e-05
1e-05
1e-05
1e-05
1e-05
1e-05
1e-05
1e-05
1e-05
1e-05
1e-05
1e-05
1e-05
1e-05
1e-05
1e-05
1e-05
1e-05
1e-05
1e-05
1e-05
1e-05
1e-05
1e-05
1.00018e-05
2.01227e-05
5.85095e-05
0.000137328
0.000257627
0.000400328
0.00054039
0.00066183
0.000757594
0.000825769
0.000866964
0.000882398
0.000872437
0.000836066
0.000771538
0.000677958
0.000557185
0.000416237
0.00027095
0.000146614
6.37135e-05
2.22876e-05
1.01289e-05
1e-05
1e-05
1e-05
1e-05
1e-05
1e-05
1e-05
1e-05
1e-05
1e-05
1e-05
1e-05
1e-05
1e-05
1e-05
1e-05
1e-05
1e-05
1e-05
1e-05
1e-05
1e-05
1e-05
1e-05
1e-05
1e-05
1e-05
1e-05
1e-05
1e-05
1e-05
1e-05
1e-05
1e-05
1e-05
1e-05
1e-05
1e-05
1e-05
1e-05
1e-05
1e-05
1e-05
1e-05
1e-05
1e-05
1e-05
1e-05
1e-05
1e-05
1e-05
1e-05
1e-05
1e-05
1e-05
1e-05
1e-05
1e-05
1e-05
1e-05
1e-05
1e-05
1e-05
1e-05
1e-05
1e-05
1e-05
1e-05
1e-05
1e-05
1e-05
1e-05
1e-05
1e-05
1e-05
1.01486e-05
2.98438e-05
0.000103342
0.000257549
0.000474816
0.00071606
0.000960934
0.0011959
0.00140741
0.00158488
0.00172154
0.00181559
0.00187058
0.00189173
0.00188094
0.00183485
0.00174729
0.00161444
0.00143821
0.00122554
0.000987491
0.000738706
0.000493702
0.000272198
0.000111979
3.34357e-05
1.06133e-05
1e-05
1e-05
1e-05
1e-05
1e-05
1e-05
1e-05
1e-05
1e-05
1e-05
1e-05
1e-05
1e-05
1e-05
1e-05
1e-05
1e-05
1e-05
1e-05
1e-05
1e-05
1e-05
1e-05
1e-05
1e-05
1e-05
1e-05
1e-05
1e-05
1e-05
1e-05
1e-05
1e-05
1e-05
1e-05
1e-05
1e-05
1e-05
1e-05
1e-05
1e-05
1e-05
1e-05
1e-05
1e-05
1e-05
1e-05
1e-05
1e-05
1e-05
1e-05
1e-05
1e-05
1e-05
1e-05
1e-05
1e-05
1e-05
1e-05
1e-05
1e-05
1e-05
1e-05
1e-05
1e-05
1e-05
1e-05
1e-05
1e-05
1e-05
1e-05
1e-05
2.61669e-05
0.000112705
0.000310914
0.000595671
0.000934877
0.00130623
0.00168786
0.0020705
0.00245344
0.00283957
0.00322368
0.00357512
0.00384979
0.00402034
0.00408
0.00402823
0.00386348
0.00359234
0.00324373
0.00286184
0.00247496
0.00208772
0.0016992
0.00131205
0.00093692
0.000596803
0.000314267
0.000116952
2.8556e-05
1e-05
1e-05
1e-05
1e-05
1e-05
1e-05
1e-05
1e-05
1e-05
1e-05
1e-05
1e-05
1e-05
1e-05
1e-05
1e-05
1e-05
1e-05
1e-05
1e-05
1e-05
1e-05
1e-05
1e-05
1e-05
1e-05
1e-05
1e-05
1e-05
1e-05
1e-05
1e-05
1e-05
1e-05
1e-05
1e-05
1e-05
1e-05
1e-05
1e-05
1e-05
1e-05
1e-05
1e-05
1e-05
1e-05
1e-05
1e-05
1e-05
1e-05
1e-05
1e-05
1e-05
1e-05
1e-05
1e-05
1e-05
1e-05
1e-05
1e-05
1e-05
1e-05
1e-05
1e-05
1e-05
1e-05
1e-05
1e-05
1e-05
1.31792e-05
7.4305e-05
0.000263411
0.00057786
0.000984459
0.00145625
0.00198156
0.00257258
0.00326033
0.00409211
0.00511804
0.00640414
0.00796793
0.00961975
0.0110197
0.0119163
0.0122087
0.0118757
0.0109381
0.0095066
0.00784942
0.00630492
0.00503853
0.00402195
0.0031937
0.00250541
0.00191287
0.00138982
0.000927683
0.000537941
0.000244457
7.09757e-05
1.39255e-05
1e-05
1e-05
1e-05
1e-05
1e-05
1e-05
1e-05
1e-05
1e-05
1e-05
1e-05
1e-05
1e-05
1e-05
1e-05
1e-05
1e-05
1e-05
1e-05
1e-05
1e-05
1e-05
1e-05
1e-05
1e-05
1e-05
1e-05
1e-05
1e-05
1e-05
1e-05
1e-05
1e-05
1e-05
1e-05
1e-05
1e-05
1e-05
1e-05
1e-05
1e-05
1e-05
1e-05
1e-05
1e-05
1e-05
1e-05
1e-05
1e-05
1e-05
1e-05
1e-05
1e-05
1e-05
1e-05
1e-05
1e-05
1e-05
1e-05
1e-05
1e-05
1e-05
1e-05
1e-05
1e-05
1e-05
2.41097e-05
0.000142955
0.000426308
0.000844731
0.00136747
0.00198443
0.00272892
0.0036971
0.00506897
0.00710995
0.010143
0.0144359
0.0203954
0.0282727
0.0369931
0.0444654
0.0492213
0.0507308
0.0488988
0.0438256
0.0361119
0.0273476
0.0196193
0.0138301
0.00966127
0.00673498
0.00476948
0.00344046
0.00249647
0.00177413
0.00118903
0.000711916
0.000347803
0.000114886
2.16279e-05
1e-05
1e-05
1e-05
1e-05
1e-05
1e-05
1e-05
1e-05
1e-05
1e-05
1e-05
1e-05
1e-05
1e-05
1e-05
1e-05
1e-05
1e-05
1e-05
1e-05
1e-05
1e-05
1e-05
1e-05
1e-05
1e-05
1e-05
1e-05
1e-05
1e-05
1e-05
1e-05
1e-05
1e-05
1e-05
1e-05
1e-05
1e-05
1e-05
1e-05
1e-05
1e-05
1e-05
1e-05
1e-05
1e-05
1e-05
1e-05
1e-05
1e-05
1e-05
1e-05
1e-05
1e-05
1e-05
1e-05
1e-05
1e-05
1e-05
1e-05
1e-05
1e-05
1e-05
1e-05
3.40208e-05
0.000200677
0.000557423
0.00106616
0.00169902
0.0024826
0.00354228
0.0051845
0.00801181
0.0130327
0.0216687
0.0356164
0.0558111
0.084168
0.122496
0.164771
0.199686
0.221008
0.227582
0.219477
0.196548
0.160259
0.117635
0.080126
0.0527056
0.0332135
0.019983
0.0119054
0.00723071