# vtk DataFile Version 2.0
time_10.vtk
ASCII
DATASET STRUCTURED_GRID
DIMENSIONS 100 100 1
POINTS 10000 float
-0.5 -0.5 0
-0.5 0 0
-0.5 0.5 0
-0.5 1 0
-0.5 1.5 0
-0.5 2 0
-0.5 2.5 0
-0.5 3 0
-0.5 3.5 0
-0.5 4 0
-0.5 4.5 0
-0.5 5 0
-0.5 5.5 0
-0.5 6 0
-0.5 6.5 0
-0.5 7 0
-0.5 7.5 0
-0.5 8 0
-0.5 8.5 0
-0.5 9 0
-0.5 9.5 0
-0.5 10 0
-0.5 10.5 0
-0.5 11 0
-0.5 11.5 0
-0.5 12 0
-0.5 12.5 0
-0.5 13 0
-0.5 13.5 0
-0.5 14 0
-0.5 14.5 0
-0.5 15 0
-0.5 15.5 0
-0.5 16 0
-0.5 16.5 0
-0.5 17 0
-0.5 17.5 0
-0.5 18 0
-0.5 18.5 0
-0.5 19 0
-0.5 19.5 0
-0.5 20 0
-0.5 20.5 0
-0.5 21 0
-0.5 21.5 0
-0.5 22 0
-0.5 22.5 0
-0.5 23 0
-0.5 23.5 0
-0.5 24 0
-0.5 24.5 0
-0.5 25 0
-0.5 25.5 0
-0.5 26 0
-0.5 26.5 0
-0.5 27 0
-0.5 27.5 0
-0.5 28 0
-0.5 28.5 0
-0.5 29 0
-0.5 29.5 0
-0.5 30 0
-0.5 30.5 0
-0.5 31 0
-0.5 31.5 0
-0.5 32 0
-0.5 32.5 0
-0.5 33 0
-0.5 33.5 0
-0.5 34 0
-0.5 34.5 0
-0.5 35 0
-0.5 35.5 0
-0.5 36 0
-0.5 36.5 0
-0.5 37 0
-0.5 37.5 0
-0.5 38 0
-0.5 38.5 0
-0.5 39 0
-0.5 39.5 0
-0.5 40 0
-0.5 40.5 0
-0.5 41 0
-0.5 41.5 0
-0.5 42 0
-0.5 42.5 0
-0.5 43 0
-0.5 43.5 0
-0.5 44 0
-0.5 44.5 0
-0.5 45 0
-0.5 45.5 0
-0.5 46 0
-0.5 46.5 0
-0.5 47 0
-0.5 47.5 0
-0.5 48 0
-0.5 48.5 0
-0.5 49 0
0 -0.5 0
0 0 0
0 0.5 0
0 1 0
0 1.5 0
0 2 0
0 2.5 0
0 3 0
0 3.5 0
0 4 0
0 4.5 0
0 5 0
0 5.5 0
0 6 0
0 6.5 0
0 7 0
0 7.5 0
0 8 0
0 8.5 0
0 9 0
0 9.5 0
0 10 0
0 10.5 0
0 11 0
0 11.5 0
0 12 0
0 12.5 0
0 13 0
0 13.5 0
0 14 0
0 14.5 0
0 15 0
0 15.5 0
0 16 0
0 16.5 0
0 17 0
0 17.5 0
0 18 0
0 18.5 0
0 19 0
0 19.5 0
0 20 0
0 20.5 0
0 21 0
0 21.5 0
0 22 0
0 22.5 0
0 23 0
0 23.5 0
0 24 0
0 24.5 0
0 25 0
0 25.5 0
0 26 0
0 26.5 0
0 27 0
0 27.5 0
0 28 0
0 28.5 0
0 29 0
0 29.5 0
0 30 0
0 30.5 0
0 31 0
0 31.5 0
0 32 0
0 32.5 0
0 33 0
0 33.5 0
0 34 0
0 34.5 0
0 35 0
0 35.5 0
0 36 0
0 36.5 0
0 37 0
0 37.5 0
0 38 0
0 38.5 0
0 39 0
0 39.5 0
0 40 0
0 40.5 0
0 41 0
0 41.5 0
0 42 0
0 42.5 0
0 43 0
0 43.5 0
0 44 0
0 44.5 0
0 45 0
0 45.5 0
0 46 0
0 46.5 0
0 47 0
0 47.5 0
0 48 0
0 48.5 0
0 49 0
0.5 -0.5 0
0.5 0 0
0.5 0.5 0
0.5 1 0
0.5 1.5 0
0.5 2 0
0.5 2.5 0
0.5 3 0
0.5 3.5 0
0.5 4 0
0.5 4.5 0
0.5 5 0
0.5 5.5 0
0.5 6 0
0.5 6.5 0
0.5 7 0
0.5 7.5 0
0.5 8 0
0.5 8.5 0
0.5 9 0
0.5 9.5 0
0.5 10 0
0.5 10.5 0
0.5 11 0
0.5 11.5 0
0.5 12 0
0.5 12.5 0
0.5 13 0
0.5 13.5 0
0.5 14 0
0.5 14.5 0
0.5 15 0
0.5 15.5 0
0.5 16 0
0.5 16.5 0
0.5 17 0
0.5 17.5 0
0.5 18 0
0.5 18.5 0
0.5 19 0
0.5 19.5 0
0.5 20 0
0.5 20.5 0
0.5 21 0
0.5 21.5 0
0.5 22 0
0.5 22.5 0
0.5 23 0
0.5 23.5 0
0.5 24 0
0.5 24.5 0
0.5 25 0
0.5 25.5 0
0.5 26 0
0.5 26.5 0
0.5 27 0
0.5 27.5 0
0.5 28 0
0.5 28.5 0
0.5 29 0
0.5 29.5 0
0.5 30 0
0.5 30.5 0
0.5 31 0
0.5 31.5 0
0.5 32 0
0.5 32.5 0
0.5 33 0
0.5 33.5 0
0.5 34 0
0.5 34.5 0
0.5 35 0
0.5 35.5 0
0.5 36 0
0.5 36.5 0
0.5 37 0
0.5 37.5 0
0.5 38 0
0.5 38.5 0
0.5 39 0
0.5 39.5 0
0.5 40 0
0.5 40.5 0
0.5 41 0
0.5 41.5 0
0.5 42 0
0.5 42.5 0
0.5 43 0
0.5 43.5 0
0.5 44 0
0.5 44.5 0
0.5 45 0
0.5 45.5 0
0.5 46 0
0.5 46.5 0
0.5 47 0
0.5 47.5 0
0.5 48 0
0.5 48.5 0
0.5 49 0
1 -0.5 0
1 0 0
1 0.5 0
1 1 0
1 1.5 0
1 2 0
1 2.5 0
1 3 0
1 3.5 0
1 4 0
1 4.5 0
1 5 0
1 5.5 0
1 6 0
1 6.5 0
1 7 0
1 7.5 0
1 8 0
1 8.5 0
1 9 0
1 9.5 0
1 10 0
1 10.5 0
1 11 0
1 11.5 0
1 12 0
1 12.5 0
1 13 0
1 13.5 0
1 14 0
1 14.5 0
1 15 0
1 15.5 0
1 16 0
1 16.5 0
1 17 0
1 17.5 0
1 18 0
1 18.5 0
1 19 0
1 19.5 0
1 20 0
1 20.5 0
1 21 0
1 21.5 0
1 22 0
1 22.5 0
1 23 0
1 23.5 0
1 24 0
1 24.5 0
1 25 0
1 25.5 0
1 26 0
1 26.5 0
1 27 0
1 27.5 0
1 28 0
1 28.5 0
1 29 0
1 29.5 0
1 30 0
1 30.5 0
1 31 0
1 31.5 0
1 32 0
1 32.5 0
1 33 0
1 33.5 0
1 34 0
1 34.5 0
1 35 0
1 35.5 0
1 36 0
1 36.5 0
1 37 0
1 37.5 0
1 38 0
1 38.5 0
1 39 0
1 39.5 0
1 40 0
1 40.5 0
1 41 0
1 41.5 0
1 42 0
1 42.5 0
1 43 0
1 43.5 0
1 44 0
1 44.5 0
1 45 0
1 45.5 0
1 46 0
1 46.5 0
1 47 0
1 47.5 0
1 48 0
1 48.5 0
1 49 0
1.5 -0.5 0
1.5 0 0
1.5 0.5 0
1.5 1 0
1.5 1.5 0
1.5 2 0
1.5 2.5 0
1.5 3 0
1.5 3.5 0
1.5 4 0
1.5 4.5 0
1.5 5 0
1.5 5.5 0
1.5 6 0
1.5 6.5 0
1.5 7 0
1.5 7.5 0
1.5 8 0
1.5 8.5 0
1.5 9 0
1.5 9.5 0
1.5 10 0
1.5 10.5 0
1.5 11 0
1.5 11.5 0
1.5 12 0
1.5 12.5 0
1.5 13 0
1.5 13.5 0
1.5 14 0
1.5 14.5 0
1.5 15 0
1.5 15.5 0
1.5 16 0
1.5 16.5 0
1.5 17 0
1.5 17.5 0
1.5 18 0
1.5 18.5 0
1.5 19 0
1.5 19.5 0
1.5 20 0
1.5 20.5 0
1.5 21 0
1.5 21.5 0
1.5 22 0
1.5 22.5 0
1.5 23 0
1.5 23.5 0
1.5 24 0
1.5 24.5 0
1.5 25 0
1.5 25.5 0
1.5 26 0
1.5 26.5 0
1.5 27 0
1.5 27.5 0
1.5 28 0
1.5 28.5 0
1.5 29 0
1.5 29.5 0
1.5 30 0
1.5 30.5 0
1.5 31 0
1.5 31.5 0
1.5 32 0
1.5 32.5 0
1.5 33 0
1.5 33.5 0
1.5 34 0
1.5 34.5 0
1.5 35 0
1.5 35.5 0
1.5 36 0
1.5 36.5 0
1.5 37 0
1.5 37.5 0
1.5 38 0
1.5 38.5 0
1.5 39 0
1.5 39.5 0
1.5 40 0
1.5 40.5 0
1.5 41 0
1.5 41.5 0
1.5 42 0
1.5 42.5 0
1.5 43 0
1.5 43.5 0
1.5 44 0
1.5 44.5 0
1.5 45 0
1.5 45.5 0
1.5 46 0
1.5 46.5 0
1.5 47 0
1.5 47.5 0
1.5 48 0
1.5 48.5 0
1.5 49 0
2 -0.5 0
2 0 0
2 0.5 0
2 1 0
2 1.5 0
2 2 0
2 2.5 0
2 3 0
2 3.5 0
2 4 0
2 4.5 0
2 5 0
2 5.5 0
2 6 0
2 6.5 0
2 7 0
2 7.5 0
2 8 0
2 8.5 0
2 9 0
2 9.5 0
2 10 0
2 10.5 0
2 11 0
2 11.5 0
2 12 0
2 12.5 0
2 13 0
2 13.5 0
2 14 0
2 14.5 0
2 15 0
2 15.5 0
2 16 0
2 16.5 0
2 17 0
2 17.5 0
2 18 0
2 18.5 0
2 19 0
2 19.5 0
2 20 0
2 20.5 0
2 21 0
2 21.5 0
2 22 0
2 22.5 0
2 23 0
2 23.5 0
2 24 0
2 24.5 0
2 25 0
2 25.5 0
2 26 0
2 26.5 0
2 27 0
2 27.5 0
2 28 0
2 28.5 0
2 29 0
2 29.5 0
2 30 0
2 30.5 0
2 31 0
2 31.5 0
2 32 0
2 32.5 0
2 33 0
2 33.5 0
2 34 0
2 34.5 0
2 35 0
2 35.5 0
2 36 0
2 36.5 0
2 37 0
2 37.5 0
2 38 0
2 38.5 0
2 39 0
2 39.5 0
2 40 0
2 40.5 0
2 41 0
2 41.5 0
2 42 0
2 42.5 0
2 43 0
2 43.5 0
2 44 0
2 44.5 0
2 45 0
2 45.5 0
2 46 0
2 46.5 0
2 47 0
2 47.5 0
2 48 0
2 48.5 0
2 49 0
2.5 -0.5 0
2.5 0 0
2.5 0.5 0
2.5 1 0
2.5 1.5 0
2.5 2 0
2.5 2.5 0
2.5 3 0
2.5 3.5 0
2.5 4 0
2.5 4.5 0
2.5 5 0
2.5 5.5 0
2.5 6 0
2.5 6.5 0
2.5 7 0
2.5 7.5 0
2.5 8 0
2.5 8.5 0
2.5 9 0
2.5 9.5 0
2.5 10 0
2.5 10.5 0
2.5 11 0
2.5 11.5 0
2.5 12 0
2.5 12.5 0
2.5 13 0
2.5 13.5 0
2.5 14 0
2.5 14.5 0
2.5 15 0
2.5 15.5 0
2.5 16 0
2.5 16.5 0
2.5 17 0
2.5 17.5 0
2.5 18 0
2.5 18.5 0
2.5 19 0
2.5 19.5 0
2.5 20 0
2.5 20.5 0
2.5 21 0
2.5 21.5 0
2.5 22 0
2.5 22.5 0
2.5 23 0
2.5 23.5 0
2.5 24 0
2.5 24.5 0
2.5 25 0
2.5 25.5 0
2.5 26 0
2.5 26.5 0
2.5 27 0
2.5 27.5 0
2.5 28 0
2.5 28.5 0
2.5 29 0
2.5 29.5 0
2.5 30 0
2.5 30.5 0
2.5 31 0
2.5 31.5 0
2.5 32 0
2.5 32.5 0
2.5 33 0
2.5 33.5 0
2.5 34 0
2.5 34.5 0
2.5 35 0
2.5 35.5 0
2.5 36 0
2.5 36.5 0
2.5 37 0
2.5 37.5 0
2.5 38 0
2.5 38.5 0
2.5 39 0
2.5 39.5 0
2.5 40 0
2.5 40.5 0
2.5 41 0
2.5 41.5 0
2.5 42 0
2.5 42.5 0
2.5 43 0
2.5 43.5 0
2.5 44 0
2.5 44.5 0
2.5 45 0
2.5 45.5 0
2.5 46 0
2.5 46.5 0
2.5 47 0
2.5 47.5 0
2.5 48 0
2.5 48.5 0
2.5 49 0
3 -0.5 0
3 0 0
3 0.5 0
3 1 0
3 1.5 0
3 2 0
3 2.5 0
3 3 0
3 3.5 0
3 4 0
3 4.5 0
3 5 0
3 5.5 0
3 6 0
3 6.5 0
3 7 0
3 7.5 0
3 8 0
3 8.5 0
3 9 0
3 9.5 0
3 10 0
3 10.5 0
3 11 0
3 11.5 0
3 12 0
3 12.5 0
3 13 0
3 13.5 0
3 14 0
3 14.5 0
3 15 0
3 15.5 0
3 16 0
3 16.5 0
3 17 0
3 17.5 0
3 18 0
3 18.5 0
3 19 0
3 19.5 0
3 20 0
3 20.5 0
3 21 0
3 21.5 0
3 22 0
3 22.5 0
3 23 0
3 23.5 0
3 24 0
3 24.5 0
3 25 0
3 25.5 0
3 26 0
3 26.5 0
3 27 0
3 27.5 0
3 28 0
3 28.5 0
3 29 0
3 29.5 0
3 30 0
3 30.5 0
3 31 0
3 31.5 0
3 32 0
3 32.5 0
3 33 0
3 33.5 0
3 34 0
3 34.5 0
3 35 0
3 35.5 0
3 36 0
3 36.5 0
3 37 0
3 37.5 0
3 38 0
3 38.5 0
3 39 0
3 39.5 0
3 40 0
3 40.5 0
3 41 0
3 41.5 0
3 42 0
3 42.5 0
3 43 0
3 43.5 0
3 44 0
3 44.5 0
3 45 0
3 45.5 0
3 46 0
3 46.5 0
3 47 0
3 47.5 0
3 48 0
3 48.5 0
3 49 0
3.5 -0.5 0
3.5 0 0
3.5 0.5 0
3.5 1 0
3.5 1.5 0
3.5 2 0
3.5 2.5 0
3.5 3 0
3.5 3.5 0
3.5 4 0
3.5 4.5 0
3.5 5 0
3.5 5.5 0
3.5 6 0
3.5 6.5 0
3.5 7 0
3.5 7.5 0
3.5 8 0
3.5 8.5 0
3.5 9 0
3.5 9.5 0
3.5 10 0
3.5 10.5 0
3.5 11 0
3.5 11.5 0
3.5 12 0
3.5 12.5 0
3.5 13 0
3.5 13.5 0
3.5 14 0
3.5 14.5 0
3.5 15 0
3.5 15.5 0
3.5 16 0
3.5 16.5 0
3.5 17 0
3.5 17.5 0
3.5 18 0
3.5 18.5 0
3.5 19 0
3.5 19.5 0
3.5 20 0
3.5 20.5 0
3.5 21 0
3.5 21.5 0
3.5 22 0
3.5 22.5 0
3.5 23 0
3.5 23.5 0
3.5 24 0
3.5 24.5 0
3.5 25 0
3.5 25.5 0
3.5 26 0
3.5 26.5 0
3.5 27 0
3.5 27.5 0
3.5 28 0
3.5 28.5 0
3.5 29 0
3.5 29.5 0
3.5 30 0
3.5 30.5 0
3.5 31 0
3.5 31.5 0
3.5 32 0
3.5 32.5 0
3.5 33 0
3.5 33.5 0
3.5 34 0
3.5 34.5 0
3.5 35 0
3.5 35.5 0
3.5 36 0
3.5 36.5 0
3.5 37 0
3.5 37.5 0
3.5 38 0
3.5 38.5 0
3.5 39 0
3.5 39.5 0
3.5 40 0
3.5 40.5 0
3.5 41 0
3.5 41.5 0
3.5 42 0
3.5 42.5 0
3.5 43 0
3.5 43.5 0
3.5 44 0
3.5 44.5 0
3.5 45 0
3.5 45.5 0
3.5 46 0
3.5 46.5 0
3.5 47 0
3.5 47.5 0
3.5 48 0
3.5 48.5 0
3.5 49 0
4 -0.5 0
4 0 0
4 0.5 0
4 1 0
4 1.5 0
4 2 0
4 2.5 0
4 3 0
4 3.5 0
4 4 0
4 4.5 0
4 5 0
4 5.5 0
4 6 0
4 6.5 0
4 7 0
4 7.5 0
4 8 0
4 8.5 0
4 9 0
4 9.5 0
4 10 0
4 10.5 0
4 11 0
4 11.5 0
4 12 0
4 12.5 0
4 13 0
4 13.5 0
4 14 0
4 14.5 0
4 15 0
4 15.5 0
4 16 0
4 16.5 0
4 17 0
4 17.5 0
4 18 0
4 18.5 0
4 19 0
4 19.5 0
4 20 0
4 20.5 0
4 21 0
4 21.5 0
4 22 0
4 22.5 0
4 23 0
4 23.5 0
4 24 0
4 24.5 0
4 25 0
4 25.5 0
4 26 0
4 26.5 0
4 27 0
4 27.5 0
4 28 0
4 28.5 0
4 29 0
4 29.5 0
4 30 0
4 30.5 0
4 31 0
4 31.5 0
4 32 0
4 32.5 0
4 33 0
4 33.5 0
4 34 0
4 34.5 0
4 35 0
4 35.5 0
4 36 0
4 36.5 0
4 37 0
4 37.5 0
4 38 0
4 38.5 0
4 39 0
4 39.5 0
4 40 0
4 40.5 0
4 41 0
4 41.5 0
4 42 0
4 42.5 0
4 43 0
4 43.5 0
4 44 0
4 44.5 0
4 45 0
4 45.5 0
4 46 0
4 46.5 0
4 47 0
4 47.5 0
4 48 0
4 48.5 0
4 49 0
4.5 -0.5 0
4.5 0 0
4.5 0.5 0
4.5 1 0
4.5 1.5 0
4.5 2 0
4.5 2.5 0
4.5 3 0
4.5 3.5 0
4.5 4 0
4.5 4.5 0
4.5 5 0
4.5 5.5 0
4.5 6 0
4.5 6.5 0
4.5 7 0
4.5 7.5 0
4.5 8 0
4.5 8.5 0
4.5 9 0
4.5 9.5 0
4.5 10 0
4.5 10.5 0
4.5 11 0
4.5 11.5 0
4.5 12 0
4.5 12.5 0
4.5 13 0
4.5 13.5 0
4.5 14 0
4.5 14.5 0
4.5 15 0
4.5 15.5 0
4.5 16 0
4.5 16.5 0
4.5 17 0
4.5 17.5 0
4.5 18 0
4.5 18.5 0
4.5 19 0
4.5 19.5 0
4.5 20 0
4.5 20.5 0
4.5 21 0
4.5 21.5 0
4.5 22 0
4.5 22.5 0
4.5 23 0
4.5 23.5 0
4.5 24 0
4.5 24.5 0
4.5 25 0
4.5 25.5 0
4.5 26 0
4.5 26.5 0
4.5 27 0
4.5 27.5 0
4.5 28 0
4.5 28.5 0
4.5 29 0
4.5 29.5 0
4.5 30 0
4.5 30.5 0
4.5 31 0
4.5 31.5 0
4.5 32 0
4.5 32.5 0
4.5 33 0
4.5 33.5 0
4.5 34 0
4.5 34.5 0
4.5 35 0
4.5 35.5 0
4.5 36 0
4.5 36.5 0
4.5 37 0
4.5 37.5 0
4.5 38 0
4.5 38.5 0
4.5 39 0
4.5 39.5 0
4.5 40 0
4.5 40.5 0
4.5 41 0
4.5 41.5 0
4.5 42 0
4.5 42.5 0
4.5 43 0
4.5 43.5 0
4.5 44 0
4.5 44.5 0
4.5 45 0
4.5 45.5 0
4.5 46 0
4.5 46.5 0
4.5 47 0
4.5 47.5 0
4.5 48 0
4.5 48.5 0
4.5 49 0
5 -0.5 0
[...]
POINT_DATA 10000
SCALARS CON float 1
LOOKUP_TABLE default
1e-05
1e-05
1e-05
1e-05
1e-05
1e-05
1e-05
1e-05
1e-05
1e-05
1e-05
1e-05
1e-05
1e-05
1e-05
1e-05
1e-05
1e-05
1e-05
1e-05
1e-05
1e-05
1e-05
1e-05
1e-05
1e-05
1e-05
1e-05
1e-05
1e-05
1e-05
1e-05
1e-05
1e-05
1e-05
1e-05
1e-05
1e-05
1e-05
1e-05
1e-05
1e-05
1e-05
1e-05
1e-05
1e-05
1e-05
1e-05
1e-05
1e-05
1e-05
1e-05
1e-05
1e-05
1e-05
1e-05
1e-05
1e-05
1e-05
1e-05
1e-05
1e-05
1e-05
1e-05
1e-05
1e-05
1e-05
1e-05
1e-05
1e-05
1e-05
1e-05
1e-05
1e-05
1e-05
1e-05
1e-05
1e-05
1e-05
1e-05
1e-05
1e-05
1e-05
1e-05
1e-05
1e-05
1e-05
1e-05
1e-05
1e-05
1e-05
1e-05
1e-05
1e-05
1e-05
1e-05
1e-05
1e-05
1e-05
1e-05
1e-05
1e-05
1e-05
1e-05
1e-05
1e-05
1e-05
1e-05
1e-05
1e-05
1e-05
1e-05
1e-05
1e-05
1e-05
1e-05
1e-05
1e-05
1e-05
1e-05
1e-05
1e-05
1e-05
1e-05
1e-05
1e-05
1e-05
1e-05
1e-05
1e-05
1e-05
1e-05
1e-05
1e-05
1e-05
1e-05
1e-05
1e-05
1e-05
1e-05
1e-05
1e-05
1e-05
1e-05
1e-05
1e-05
1e-05
1e-05
1e-05
1e-05
1e-05
1e-05
1e-05
1e-05
1e-05
1e-05
1e-05
1e-05
1e-05
1e-05
1e-05
1e-05
1e-05
1e-05
1e-05
1e-05
1e-05
1e-05
1e-05
1e-05
1e-05
1e-05
1e-05
1e-05
1e-05
1e-05
1e-05
1e-05
1e-05
1e-05
1e-05
1e-05
1e-05
1e-05
1e-05
1e-05
1e-05
1e-05
1e-05
1e-05
1e-05
1e-05
1e-05
1e-05
1e-05
1e-05
1e-05
1e-05
1e-05
1e-05
1e-05
1e-05
1e-05
1e-05
1e-05
1e-05
1e-05
1e-05
1e-05
1e-05
1e-05
1e-05
1e-05
1e-05
1e-05
1e-05
1e-05
1e-05
1e-05
1e-05
1e-05
1e-05
1e-05
1e-05
1e-05
1e-05
1e-05
1e-05
1e-05
1e-05
1e-05
1e-05
1e-05
1e-05
1e-05
1e-05
1e-05
1e-05
1e-05
1e-05
1e-05
1e-05
1e-05
1e-05
1e-05
1e-05
1e-05
1e-05
1e-05
1e-05
1e-05
1e-05
1e-05
1e-05
1e-05
1e-05
1e-05
1e-05
1e-05
1e-05
1e-05
1e-05
1e-05
1e-05
1e-05
1e-05
1e-05
1e-05
1e-05
1e-05
1e-05
1e-05
1e-05
1e-05
1e-05
1e-05
1e-05
1e-05
1e-05
1e-05
1e-05
1e-05
1e-05
1e-05
1e-05
1e-05
1e-05
1e-05
1e-05
1e-05
1e-05
1e-05
1e-05
1e-05
1e-05
1e-05
1e-05
1e-05
1e-05
1e-05
1e-05
1e-05
1e-05
1e-05
1e-05
1e-05
1e-05
1e-05
1e-05
1e-05
1e-05
1e-05
1e-05
1e-05
1e-05
1e-05
1e-05
1e-05
1e-05
1e-05
1e-05
1e-05
1e-05
1e-05
1e-05
1e-05
1e-05
1e-05
1e-05
1e-05
1e-05
1e-05
1e-05
1e-05
1e-05
1e-05
1e-05
1e-05
1e-05
1e-05
1e-05
1e-05
1e-05
1e-05
1e-05
1e-05
1e-05
1e-05
1e-05
1e-05
1e-05
1e-05
1e-05
1e-05
1e-05
1e-05
1e-05
1e-05
1e-05
1e-05
1e-05
1e-05
1e-05
1e-05
1e-05
1e-05
1e-05
1e-05
1e-05
1e-05
1e-05
1e-05
1e-05
1e-05
1e-05
1e-05
1e-05
1e-05
1e-05
1e-05
1e-05
1e-05
1e-05
1e-05
1e-05
1e-05
1e-05
1e-05
1e-05
1e-05
1e-05
1e-05
1e-05
1e-05
1e-05
1e-05
1e-05
1e-05
1e-05
1e-05
1e-05
1e-05
1e-05
1e-05
1e-05
1e-05
1e-05
1e-05
1e-05
1e-05
1e-05
1e-05
1e-05
1e-05
1e-05
1e-05
1e-05
1e-05
1e-05
1e-05
1e-05
1e-05
1e-05
1e-05
1e-05
1e-05
1e-05
1e-05
1e-05
1e-05
1e-05
1e-05
1e-05
1e-05
1e-05
1e-05
1e-05
1e-05
1e-05
1e-05
1e-05
1e-05
1e-05
1e-05
1e-05
1e-05
1e-05
1e-05
1e-05
1e-05
1e-05
1e-05
1e-05
1e-05
1e-05
1e-05
1e-05
1e-05
1e-05
1e-05
1e-05
1e-05
1e-05
1e-05
1e-05
1e-05
1e-05
1e-05
1e-05
1e-05
1e-05
1e-05
1e-05
1e-05
1e-05
1e-05
1e-05
1e-05
1e-05
1e-05
1e-05
1e-05
1e-05
1e-05
1e-05
1e-05
1e-05
1e-05
1e-05
1e-05
1e-05
1e-05
1e-05
1e-05
1e-05
1e-05
1e-05
1e-05
1e-05
1e-05
1e-05
1e-05
1e-05
1e-05
1e-05
1e-05
1e-05
1e-05
1e-05
1e-05
1e-05
1e-05
1e-05
1e-05
1e-05
1e-05
1e-05
1e-05
1e-05
1e-05
1e-05
1e-05
1e-05
1e-05
1e-05
1e-05
1e-05
1e-05
1e-05
1e-05
1e-05
1e-05
1e-05
1e-05
1e-05
1e-05
1e-05
1e-05
1e-05
1e-05
1e-05
1e-05
1e-05
1e-05
1e-05
1e-05
1e-05
1e-05
1e-05
1e-05
1e-05
1e-05
1e-05
1e-05
1e-05
1e-05
1e-05
1e-05
1e-05
1e-05
1e-05
1e-05
1e-05
1e-05
1e-05
1e-05
1e-05
1e-05
1e-05
1e-05
1e-05
1e-05
1e-05
1e-05
1e-05
1e-05
1e-05
1e-05
1e-05
1e-05
1e-05
1e-05
1e-05
1e-05
1e-05
1e-05
1e-05
1e-05
1e-05
1e-05
1e-05
1e-05
1e-05
1e-05
1e-05
1e-05
1e-05
1e-05
1e-05
1e-05
1e-05
1e-05
1e-05
1e-05
1e-05
1e-05
1e-05
1e-05
1e-05
1e-05
1e-05
1e-05
1e-05
1e-05
1e-05
1e-05
1e-05
1e-05
1e-05
1e-05
1e-05
1e-05
1e-05
1e-05
1e-05
1e-05
1e-05
1e-05
1e-05
1e-05
1e-05
1e-05
1e-05
1e-05
1e-05
1e-05
1e-05
1e-05
1e-05
1e-05
1e-05
1e-05
1e-05
1e-05
1e-05
1e-05
1e-05
1e-05
1e-05
1e-05
1e-05
1e-05
1e-05
1e-05
1e-05
1e-05
1e-05
1e-05
1e-05
1e-05
1e-05
1e-05
1e-05
1e-05
1e-05
1e-05
1e-05
1e-05
1e-05
1e-05
1e-05
1e-05
1e-05
1e-05
1e-05
1e-05
1e-05
1e-05
1e-05
1e-05
1e-05
1e-05
1e-05
1e-05
1e-05
1e-05
1e-05
1e-05
1e-05
1e-05
1e-05
1e-05
1e-05
1e-05
1e-05
1e-05
1e-05
1e-05
1e-05
1e-05
1e-05
1e-05
1e-05
1e-05
1e-05
1e-05
1e-05
1e-05
1e-05
1e-05
1e-05
1e-05
1e-05
1e-05
1e-05
1e-05
1e-05
1e-05
1e-05
1e-05
1e-05
1e-05
1e-05
1e-05
1e-05
1e-05
1e-05
1e-05
1e-05
1e-05
1e-05
1e-05
1e-05
1e-05
1e-05
1e-05
1e-05
1e-05
1e-05
1e-05
1e-05
1e-05
1e-05
1e-05
1e-05
1e-05
1e-05
1e-05
1e-05
1e-05
1e-05
1e-05
1e-05
1e-05
1e-05
1e-05
1e-05
1e-05
1e-05
1e-05
1e-05
1e-05
1e-05
1e-05
1e-05
1e-05
1e-05
1e-05
1e-05
1e-05
1e-05
1e-05
1e-05
1e-05
1e-05
1e-05
1e-05
1e-05
1e-05
1e-05
1e-05
1e-05
1e-05
1e-05
1e-05
1e-05
1e-05
1e-05
1e-05
1e-05
1e-05
1e-05
1e-05
1e-05
1e-05
1e-05
1e-05
1e-05
1e-05
1e-05
1e-05
1e-05
1e-05
1e-05
1e-05
1e-05
1e-05
1e-05
1e-05
1e-05
1e-05
1e-05
1e-05
1e-05
1e-05
1e-05
1e-05
1e-05
1e-05
1e-05
1e-05
1e-05
1e-05
1e-05
1e-05
1e-05
1e-05
1e-05
1e-05
1e-05
1e-05
1e-05
1e-05
1e-05
1e-05
1e-05
1e-05
1e-05
1e-05
1e-05
1e-05
1e-05
1e-05
1e-05
1e-05
1e-05
1e-05
1e-05
1e-05
1e-05
1e-05
1e-05
1e-05
1e-05
1e-05
1e-05
1e-05
1e-05
1e-05
1e-05
1e-05
1e-05
1e-05
1e-05
1e-05
1e-05
1e-05
1e-05
1e-05
1e-05
1e-05
1e-05
1e-05
1e-05
1e-05
1e-05
1e-05
1e-05
1e-05
1e-05
1e-05
1e-05
1e-05
1e-05
1e-05
1e-05
1e-05
1e-05
1e-05
1e-05
1e-05
1e-05
1e-05
1e-05
1e-05
1e-05
1e-05
1e-05
1e-05
1e-05
1e-05
1e-05
1e-05
1e-05
1e-05
1e-05
1e-05
1e-05
1e-05
1e-05
1e-05
1e-05
1e-05
1e-05
1e-05
1e-05
1e-05
1e-05
1e-05
1e-05
1e-05
1e-05
1e-05
1e-05
1e-05
1e-05
1e-05
1e-05
1e-05
1e-05
1e-05
1e-05
1e-05
1e-05
1e-05
1e-05
1e-05
1e-05
1e-05
1e-05
1e-05
1e-05
1e-05
1e-05
1e-05
1e-05
1e-05
1e-05
1e-05
1e-05
1e-05
1e-05
1e-05
1e-05
1e-05
1e-05
1e-05
1e-05
1e-05
1e-05
1e-05
1e-05
1e-05
1e-05
1e-05
1e-05
1e-05
1e-05
1e-05
1e-05
1e-05
1e-05
1e-05
1e-05
1e-05
1e-05
1e-05
1e-05
1e-05
1e-05
1e-05
1e-05
1e-05
1e-05
1e-05
1e-05
1e-05
1e-05
1e-05
1e-05
1e-05
1e-05
1e-05
1e-05
1e-05
1e-05
1e-05
1e-05
1e-05
1e-05
1e-05
1e-05
1e-05
1e-05
1e-05
1e-05
1e-05
1e-05
1e-05
1e-05
1e-05
1e-05
1e-05
1e-05
1e-05
1e-05
1e-05
1e-05
1e-05
1e-05
1e-05
1e-05
1e-05
1e-05
1e-05
1e-05
1e-05
1e-05
1e-05
1e-05
1e-05
1e-05
1e-05
1e-05
1e-05
1e-05
1e-05
1e-05
1e-05
1e-05
1e-05
1e-05
1e-05
1e-05
1e-05
1e-05
1e-05
1e-05
1e-05
1e-05
1e-05
1e-05
1e-05
1e-05
1e-05
1e-05
1e-05
1e-05
1e-05
1e-05
1e-05
1e-05
1e-05
1e-05
1e-05
1e-05
1e-05
1e-05
1e-05
1e-05
1e-05
1e-05
1e-05
1e-05
1e-05
1e-05
1e-05
1e-05
1e-05
1e-05
1e-05
1e-05
1e-05
1e-05
1e-05
1e-05
1e-05
1e-05
1e-05
1e-05
1e-05
1e-05
1e-05
1e-05
1e-05
1e-05
1e-05
1e-05
1e-05
1e-05
1e-05
1e-05
1e-05
1e-05
1e-05
1e-05
1e-05
1e-05
1e-05
1e-05
1e-05
1e-05
1e-05
1e-05
1e-05
1e-05
1e-05
1e-05
1e-05
1e-05
1e-05
1e-05
1e-05
1e-05
1e-05
1e-05
1e-05
1e-05
1e-05
1e-05
1e-05
1e-05
1e-05
1e-05
1e-05
1e-05
1e-05
1e-05
1e-05
1e-05
1e-05
1e-05
1e-05
1e-05
1e-05
1e-05
1e-05
1e-05
1e-05
1e-05
1e-05
1e-05
1e-05
1e-05
1e-05
1e-05
1e-05
1e-05
1e-05
1e-05
1e-05
1e-05
1e-05
1e-05
1e-05
1e-05
1e-05
1e-05
1e-05
1e-05
1e-05
1e-05
1e-05
1e-05
1e-05
1e-05
1e-05
1e-05
1e-05
1e-05
1e-05
1e-05
1e-05
1e-05
1e-05
1e-05
1e-05
1e-05
1e-05
1e-05
1e-05
1e-05
1e-05
1e-05
1e-05
1e-05
1e-05
1e-05
1e-05
1e-05
1e-05
1e-05
1e-05
1e-05
1e-05
1e-05
1e-05
1e-05
1e-05
1e-05
1e-05
1e-05
1e-05
1e-05
1e-05
1e-05
1e-05
1e-05
1e-05
1e-05
1e-05
1e-05
1e-05
1e-05
1e-05
1e-05
1e-05
1e-05
1e-05
1e-05
1e-05
1e-05
1e-05
1e-05
1e-05
1e-05
1e-05
1e-05
1e-05
1e-05
1e-05
1e-05
1e-05
1e-05
1e-05
1e-05
1e-05
1e-05
1e-05
1e-05
1e-05
1e-05
1e-05
1e-05
1e-05
1e-05
1e-05
1e-05
1e-05
1e-05
1e-05
1e-05
1e-05
1e-05
1e-05
1e-05
1e-05
1e-05
1e-05
1e-05
1e-05
1e-05
1e-05
1e-05
1e-05
1e-05
1e-05
1e-05
1e-05
1e-05
1e-05
1e-05
1e-05
1e-05
1e-05
1e-05
1e-05
1e-05
1e-05
1e-05
1e-05
1e-05
1e-05
1e-05
1e-05
1e-05
1e-05
1e-05
1e-05
1e-05
1e-05
1e-05
1e-05
1e-05
1e-05
1e-05
1e-05
1e-05
1e-05
1e-05
1e-05
1e-05
1e-05
1e-05
1e-05
1e-05
1e-05
1e-05
1e-05
1e-05
1e-05
1e-05
1e-05
1e-05
1e-05
1e-05
1e-05
1e-05
1e-05
1e-05
1e-05
1e-05
1e-05
1e-05
1e-05
1e-05
1e-05
1e-05
1e-05
1e-05
1e-05
1e-05
1e-05
1e-05
1e-05
1e-05
1e-05
1e-05
1e-05
1e-05
1e-05
1e-05
1e-05
1e-05
1e-05
1e-05
1e-05
1e-05
1e-05
1e-05
1e-05
1e-05
1e-05
1e-05
1e-05
1e-05
1e-05
1e-05
1e-05
1e-05
1e-05
1e-05
1e-05
1e-05
1e-05
1e-05
1e-05
1e-05
1e-05
1e-05
1e-05
1e-05
1e-05
1e-05
1e-05
1e-05
1e-05
1e-05
1e-05
1e-05
1e-05
1e-05
1e-05
1e-05
1e-05
1e-05
1e-05
1e-05
1e-05
1e-05
1e-05
1e-05
1e-05
1e-05
1e-05
1e-05
1e-05
1e-05
1e-05
1e-05
1e-05
1e-05
1e-05
1e-05
1e-05
1e-05
1e-05
1e-05
1e-05
1e-05
1e-05
1e-05
1e-05
1e-05
1e-05
1e-05
1e-05
1e-05
1e-05
1e-05
1e-05
1e-05
1e-05
1e-05
1e-05
1e-05
1e-05
1e-05
1e-05
1e-05
1e-05
1e-05
1e-05
1e-05
1e-05
1e-05
1e-05
1e-05
1e-05
1e-05
1e-05
1e-05
1e-05
1e-05
1e-05
1e-05
1e-05
1e-05
1e-05
1e-05
1e-05
1e-05
1e-05
1e-05
1e-05
1e-05
1e-05
1e-05
1e-05
1e-05
1e-05
1e-05
1e-05
1e-05
1e-05
1e-05
1e-05
1e-05
1e-05
1e-05
1e-05
1e-05
1e-05
1e-05
1e-05
1e-05
1e-05
1e-05
1e-05
1e-05
1e-05
1e-05
1e-05
1e-05
1e-05
1e-05
1e-05
1e-05
1e-05
1e-05
1e-05
1e-05
1e-05
1e-05
1e-05
1e-05
1e-05
1e-05
1e-05
1e-05
1e-05
1e-05
1e-05
1e-05
1e-05
1e-05
1e-05
1e-05
1e-05
1e-05
1e-05
1e-05
1e-05
1e-05
1e-05
1e-05
1e-05
1e-05
1e-05
1e-05
1e-05
1e-05
1e-05
1e-05
1e-05
1e-05
1e-05
1e-05
1e-05
1e-05
1e-05
1e-05
1e-05
1e-05
1e-05
1e-05
1e-05
1e-05
1e-05
1e-05
1e-05
1e-05
1e-05
1e-05
1e-05
1e-05
1e-05
1e-05
1e-05
1e-05
1e-05
1e-05
1e-05
1e-05
1e-05
1e-05
1e-05
1e-05
1e-05
1e-05
1e-05
1e-05
1e-05
1e-05
1e-05
1e-05
1e-05
1e-05
1e-05
1e-05
1e-05
1e-05
1e-05
1e-05
1e-05
1e-05
1e-05
1e-05
1e-05
1e-05
1e-05
1e-05
1e-05
1e-05
1e-05
1e-05
1e-05
1e-05
1e-05
1e-05
1e-05
1e-05
1e-05
1e-05
1e-05
1e-05
1e-05
1e-05
1e-05
1e-05
1e-05
1e-05
1e-05
1e-05
1e-05
1e-05
1e-05
1e-05
1e-05
1e-05
1e-05
1e-05
1e-05
1e-05
1e-05
1e-05
1e-05
1e-05
1e-05
1e-05
1e-05
1e-05
1e-05
1e-05
1e-05
1e-05
1e-05
1e-05
1e-05
1e-05
1e-05
1e-05
1e-05
1e-05
1e-05
1e-05
1e-05
1e-05
1e-05
1e-05
1e-05
1e-05
1e-05
1e-05
1e-05
1e-05
1e-05
1e-05
1e-05
1e-05
1e-05
1e-05
1e-05
1e-05
1e-05
1e-05
1e-05
1e-05
1e-05
1e-05
1e-05
1e-05
1e-05
1e-05
1e-05
1e-05
1e-05
1e-05
1e-05
1e-05
1e-05
1e-05
1e-05
1e-05
1e-05
1e-05
1e-05
1e-05
1e-05
1e-05
1e-05
1e-05
1e-05
1e-05
1e-05
1e-05
1e-05
1e-05
1e-05
1e-05
1e-05
1e-05
1e-05
1e-05
1e-05
1e-05
1e-05
1e-05
1e-05
1e-05
1e-05
1e-05
1e-05
1e-05
1e-05
1e-05
1e-05
1e-05
1e-05
1e-05
1e-05
1e-05
1e-05
1e-05
1e-05
1e-05
1e-05
1e-05
1e-05
1e-05
1e-05
1e-05
1e-05
1e-05
1e-05
1e-05
1e-05
1e-05
1e-05
1e-05
1e-05
1e-05
1e-05
1e-05
1e-05
1e-05
1e-05
1e-05
1e-05
1e-05
1e-05
1e-05
1e-05
1e-05
1e-05
1e-05
1e-05
1e-05
1e-05
1e-05
1e-05
1e-05
1e-05
1e-05
1e-05
1e-05
1e-05
1e-05
1e-05
1e-05
1e-05
1e-05
1e-05
1e-05
1e-05
1e-05
1e-05
1e-05
1e-05
1e-05
1e-05
1e-05
1e-05
1e-05
1e-05
1e-05
1e-05
1e-05
1e-05
1e-05
1e-05
1e-05
1e-05
1e-05
1e-05
1e-05
1e-05
1e-05
1e-05
1e-05
1e-05
1e-05
1e-05
1e-05
1e-05
1e-05
1e-05
1e-05
1e-05
1e-05
1e-05
1e-05
1e-05
1e-05
1e-05
1e-05
1e-05
1e-05
1e-05
1e-05
1e-05
1e-05
1e-05
1e-05
1e-05
1e-05
1e-05
1e-05
1e-05
1e-05
1e-05
1e-05
1e-05
1e-05
1e-05
1e-05
1e-05
1e-05
1e-05
1e-05
1e-05
1e-05
1e-05
1e-05
1e-05
1e-05
1e-05
1e-05
1e-05
1e-05
1e-05
1e-05
1e-05
1e-05
1e-05
1e-05
1e-05
1e-05
1e-05
1e-05
1e-05
1e-05
1e-05
1e-05
1e-05
1e-05
1e-05
1e-05
1e-05
1e-05
1e-05
1e-05
1e-05
1e-05
1e-05
1e-05
1e-05
1e-05
1e-05
1e-05
1e-05
1e-05
1e-05
1e-05
1e-05
1e-05
1e-05
1e-05
1e-05
1e-05
1e-05
1e-05
1e-05
1e-05
1e-05
1e-05
1e-05
1e-05
1e-05
1e-05
1e-05
1e-05
1e-05
1e-05
1e-05
1e-05
1e-05
1e-05
1e-05
1e-05
1e-05
1e-05
1e-05
1e-05
1e-05
1e-05
1e-05
1e-05
1e-05
1e-05
1e-05
1e-05
1e-05
1e-05
1e-05
1e-05
1e-05
1e-05
1e-05
1e-05
1e-05
1e-05
1e-05
1e-05
1e-05
1e-05
1e-05
1e-05
1e-05
1e-05
1e-05
1e-05
1e-05
1e-05
1e-05
1e-05
1e-05
1e-05
1e-05
1e-05
1e-05
1e-05
1e-05
1e-05
1e-05
1e-05
1e-05
1e-05
1e-05
1e-05
1e-05
1e-05
1e-05
1e-05
1e-05
1e-05
1e-05
1e-05
1e-05
1e-05
1e-05
1e-05
1e-05
1e-05
1e-05
1e-05
1e-05
1e-05
1e-05
1e-05
1e-05
1e-05
1e-05
1e-05
1e-05
1e-05
1e-05
1e-05
1e-05
1e-05
1e-05
1e-05
1e-05
1e-05
1e-05
1e-05
1e-05
1e-05
1e-05
1e-05
1e-05
1e-05
1e-05
1e-05
1e-05
1e-05
1e-05
1e-05
1e-05
1e-05
1e-05
1e-05
1e-05
1e-05
1e-05
1e-05
1e-05
1e-05
1e-05
1e-05
1e-05
1e-05
1e-05
1e-05
1e-05
1e-05
1e-05
1e-05
1e-05
1e-05
1e-05
1e-05
1e-05
1e-05
1e-05
1e-05
1e-05
1e-05
1e-05
1e-05
1e-05
1e-05
1e-05
1e-05
1e-05
1e-05
1e-05
1e-05
1e-05
1e-05
1e-05
1e-05
1e-05
1e-05
1e-05
1e-05
1e-05
1e-05
1e-05
1e-05
1e-05
1e-05
1e-05
1e-05
1e-05
1e-05
1e-05
1e-05
1e-05
1e-05
1e-05
1e-05
1e-05
1e-05
1e-05
1e-05
1e-05
1e-05
1e-05
1e-05
1e-05
1e-05
1e-05
1e-05
1e-05
1e-05
1e-05
1e-05
1e-05
1e-05
1e-05
1e-05
1e-05
1e-05
1e-05
1e-05
1e-05
1e-05
1e-05
1e-05
1e-05
1e-05
1e-05
1e-05
1e-05
1e-05
1e-05
1e-05
1e-05
1e-05
1e-05
1e-05
1e-05
1e-05
1e-05
1e-05
1e-05
1e-05
1e-05
1e-05
1e-05
1e-05
1e-05
1e-05
1e-05
1e-05
1e-05
1e-05
1e-05
1e-05
1e-05
1e-05
1e-05
1e-05
1e-05
1e-05
1e-05
1e-05
1e-05
1e-05
1e-05
1e-05
1e-05
1e-05
1e-05
1e-05
1e-05
1e-05
1e-05
1e-05
1e-05
1e-05
1e-05
1e-05
1e-05
1e-05
1e-05
1e-05
1e-05
1e-05
1e-05
1e-05
1e-05
1e-05
1e-05
1e-05
1e-05
1e-05
1e-05
1e-05
1e-05
1e-05
1e-05
1e-05
1e-05
1e-05
1e-05
1e-05
1e-05
1e-05
1e-05
1e-05
1e-05
1e-05
1e-05
1e-05
1e-05
1e-05
1e-05
1e-05
1e-05
1e-05
1e-05
1e-05
1e-05
1e-05
1e-05
1e-05
1e-05
1e-05
1e-05
1e-05
1e-05
1e-05
1e-05
1e-05
1e-05
1e-05
1e-05
1e-05
1e-05
1e-05
1e-05
1e-05
1e-05
1e-05
1e-05
1e-05
1e-05
1e-05
1e-05
1e-05
1e-05
1e-05
1e-05
1e-05
1e-05
1e-05
1e-05
1e-05
1e-05
1e-05
1e-05
1e-05
1e-05
1e-05
1e-05
1e-05
1e-05
1e-05
1e-05
1e-05
1e-05
1e-05
1e-05
1e-05
1e-05
1e-05
1e-05
1e-05
1e-05
1e-05
1e-05
1e-05
1e-05
1e-05
1e-05
1e-05
1e-05
1e-05
1e-05
1e-05
1e-05
1e-05
1e-05
1e-05
1e-05
1e-05
1e-05
1e-05
1e-05
1e-05
1e-05
1e-05
1e-05
1e-05
1e-05
1e-05
1e-05
1e-05
1e-05
1e-05
1e-05
1e-05
1e-05
1e-05
1e-05
1e-05
1e-05
1e-05
1e-05
1e-05
1e-05
1e-05
1e-05
1e-05
1e-05
1e-05
1e-05
1e-05
1e-05
1e-05
1e-05
1e-05
1e-05
1e-05
1e-05
1e-05
1e-05
1e-05
1e-05
1e-05
1e-05
1e-05
1e-05
1e-05
1e-05
1e-05
1e-05
1e-05
1e-05
1e-05
1e-05
1e-05
1e-05
1e-05
1e-05
1e-05
1e-05
1e-05
1e-05
1e-05
1e-05
1e-05
1e-05
1e-05
1e-05
1e-05
1e-05
1e-05
1e-05
1e-05
1e-05
1e-05
1e-05
1e-05
1e-05
1e-05
1e-05
1e-05
1e-05
1e-05
1e-05
1e-05
1e-05
1e-05
1e-05
1e-05
1e-05
1e-05
1e-05
1e-05
1e-05
1e-05
1e-05
1e-05
1e-05
1e-05
1e-05
1e-05
1e-05
1e-05
1e-05
1e-05
1e-05
1e-05
1e-05
1e-05
1e-05
1e-05
1e-05
1e-05
1e-05
1e-05
1e-05
1e-05
1e-05
1e-05
1e-05
1e-05
1e-05
1e-05
1e-05
1e-05
1e-05
1e-05
1e-05
1e-05
1e-05
1e-05
1e-05
1e-05
1e-05
1e-05
1e-05
1e-05
1e-05
1e-05
1e-05
1e-05
1e-05
1e-05
1e-05
1e-05
1e-05
1e-05
1e-05
1e-05
1e-05
1e-05
1e-05
1e-05
1e-05
1e-05
1e-05
1e-05
1e-05
1e-05
1e-05
1e-05
1e-05
1e-05
1e-05
1e-05
1.00001e-05
1.17637e-05
1.67649e-05
2.41599e-05
3.20985e-05
3.82308e-05
4.05968e-05
3.84208e-05
3.24258e-05
2.45343e-05
1.70857e-05
1.19529e-05
1.00083e-05
1e-05
1e-05
1e-05
1e-05
1e-05
1e-05
1e-05
1e-05
1e-05
1e-05
1e-05
1e-05
1e-05
1e-05
1e-05
1e-05
1e-05
1e-05
1e-05
1e-05
1e-05
1e-05
1e-05
1e-05
1e-05
1e-05
1e-05
1e-05
1e-05
1e-05
1e-05
1e-05
1e-05
1e-05
1e-05
1e-05
1e-05
1e-05
1e-05
1e-05
1e-05
1e-05
1e-05
1e-05
1e-05
1e-05
1e-05
1e-05
1e-05
1e-05
1e-05
1e-05
1e-05
1e-05
1e-05
1e-05
1e-05
1e-05
1e-05
1e-05
1e-05
1e-05
1e-05
1e-05
1e-05
1e-05
1e-05
1e-05
1e-05
1e-05
1e-05
1e-05
1e-05
1e-05
1e-05
1e-05
1e-05
1e-05
1e-05
1e-05
1e-05
1e-05
1e-05
1e-05
1.03714e-05
1.8619e-05
4.0381e-05
7.74365e-05
0.000127342
0.000183469
0.000236873
0.000279839
0.000307581
0.000317826
0.000309836
0.000283989
0.000242246
0.000189198
0.000132553
8.14947e-05
4.30442e-05
1.99714e-05
1.06871e-05
1e-05
1e-05
1e-05
1e-05
1e-05
1e-05
1e-05
1e-05
1e-05
1e-05
1e-05
1e-05
1e-05
1e-05
1e-05
1e-05
1e-05
1e-05
1e-05
1e-05
1e-05
1e-05
1e-05
1e-05
1e-05
1e-05
1e-05
1e-05
1e-05
1e-05
1e-05
1e-05
1e-05
1e-05
1e-05
1e-05
1e-05
1e-05
1e-05
1e-05
1e-05
1e-05
1e-05
1e-05
1e-05
1e-05
1e-05
1e-05
1e-05
1e-05
1e-05
1e-05
1e-05
1e-05
1e-05
1e-05
1e-05
1e-05
1e-05
1e-05
1e-05
1e-05
1e-05
1e-05
1e-05
1e-05
1e-05
1e-05
1e-05
1e-05
1e-05
1e-05
1e-05
1e-05
1e-05
1e-05
1e-05
1e-05
1e-05
1.45282e-05
4.25445e-05
0.000107858
0.000215944
0.00035279
0.000494765
0.000625261
0.000735691
0.000821858
0.000882543
0.00091895
0.000933013
0.000925346
0.000894429
0.000837682
0.000753673
0.000643758
0.000512418
0.000368387
0.000228195
0.000115799
4.66544e-05
1.60049e-05
1e-05
1e-05
1e-05
1e-05
1e-05
1e-05
1e-05
1e-05
1e-05
1e-05
1e-05
1e-05
1e-05
1e-05
1e-05
1e-05
1e-05
1e-05
1e-05
1e-05
1e-05
1e-05
1e-05
1e-05
1e-05
1e-05
1e-05
1e-05
1e-05
1e-05
1e-05
1e-05
1e-05
1e-05
1e-05
1e-05
1e-05
1e-05
1e-05
1e-05
1e-05
1e-05
1e-05
1e-05
1e-05
1e-05
1e-05
1e-05
1e-05
1e-05
1e-05
1e-05
1e-05
1e-05
1e-05
1e-05
1e-05
1e-05
1e-05
1e-05
1e-05
1e-05
1e-05
1e-05
1e-05
1e-05
1e-05
1e-05
1e-05
1e-05
1e-05
1e-05
1e-05
1e-05
1e-05
1.66097e-05
6.16673e-05
0.000174499
0.000357973
0.000579133
0.000813922
0.00104714
0.00126465
0.00145652
0.00161758
0.00174442
0.0018346
0.0018888
0.00190977
0.00189848
0.00185234
0.00176766
0.00164361
0.00148272
0.00128867
0.00106734
0.000829767
0.000591325
0.000367888
0.000182156
6.60168e-05
1.83308e-05
1e-05
1e-05
1e-05
1e-05
1e-05
1e-05
1e-05
1e-05
1e-05
1e-05
1e-05
1e-05
1e-05
1e-05
1e-05
1e-05
1e-05
1e-05
1e-05
1e-05
1e-05
1e-05
1e-05
1e-05
1e-05
1e-05
1e-05
1e-05
1e-05
1e-05
1e-05
1e-05
1e-05
1e-05
1e-05
1e-05
1e-05
1e-05
1e-05
1e-05
1e-05
1e-05
1e-05
1e-05
1e-05
1e-05
1e-05
1e-05
1e-05
1e-05
1e-05
1e-05
1e-05
1e-05
1e-05
1e-05
1e-05
1e-05
1e-05
1e-05
1e-05
1e-05
1e-05
1e-05
1e-05
1e-05
1e-05
1e-05
1e-05
1e-05
1e-05
1.24017e-05
5.47584e-05
0.000185323
0.000413721
0.000706217
0.0010383
0.00138596
0.00173493
0.00208155
0.00242659
0.00277444
0.00312821
0.00347
0.00375559
0.00394195
0.00400651
0.00394301
0.00375695
0.0034719
0.00313196
0.00277913
0.00242831
0.00207683
0.0017227
0.00136749
0.00101698
0.000686557
0.000400364
0.000180614
5.49883e-05
1.32155e-05
1e-05
1e-05
1e-05
1e-05
1e-05
1e-05
1e-05
1e-05
1e-05
1e-05
1e-05
1e-05
1e-05
1e-05
1e-05
1e-05
1e-05
1e-05
1e-05
1e-05
1e-05
1e-05
1e-05
1e-05
1e-05
1e-05
1e-05
1e-05
1e-05
1e-05
1e-05
1e-05
1e-05
1e-05
1e-05
1e-05
1e-05
1e-05
1e-05
1e-05
1e-05
1e-05
1e-05
1e-05
1e-05
1e-05
1e-05
1e-05
1e-05
1e-05
1e-05
1e-05
1e-05
1e-05
1e-05
1e-05
1e-05
1e-05
1e-05
1e-05
1e-05
1e-05
1e-05
1e-05
1e-05
1e-05
1e-05
1e-05
2.73216e-05
0.000129714
0.000358955
0.000689537
0.00109162
0.00153848
0.00202218
0.00255261
0.0031591
0.00388762
0.00478487
0.00590572
0.00730178
0.0088779
0.0103208
0.0112967
0.011615
0.0112231
0.0101841
0.00870728
0.00713763
0.00576778
0.00466526
0.00377493
0.00304762
0.00243829
0.00190546
0.00142511
0.000991403
0.00061292
0.000312566
0.000112528
2.54862e-05
1e-05
1e-05
1e-05
1e-05
1e-05
1e-05
1e-05
1e-05
1e-05
1e-05
1e-05
1e-05
1e-05
1e-05
1e-05
1e-05
1e-05
1e-05
1e-05
1e-05
1e-05
1e-05
1e-05
1e-05
1e-05
1e-05
1e-05
1e-05
1e-05
1e-05
1e-05
1e-05
1e-05
1e-05
1e-05
1e-05
1e-05
1e-05
1e-05
1e-05
1e-05
1e-05
1e-05
1e-05
1e-05
1e-05
1e-05
1e-05
1e-05
1e-05
1e-05
1e-05
1e-05
1e-05
1e-05
1e-05
1e-05
1e-05
1e-05
1e-05
1e-05
1e-05
1e-05
1e-05
1e-05
1.00535e-05
4.99569e-05
0.000216504
0.00052961
0.000955728
0.00146201
0.00203903
0.00271244
0.00356263
0.00474138
0.00647871
0.00906886
0.0127568
0.0178246
0.0246775
0.0328827
0.0405665
0.0457587
0.0474154
0.0452724
0.0396629
0.0317575
0.023618
0.0169796
0.0120905
0.00853261
0.0060504
0.00438058
0.00323685
0.00240649
0.0017554
0.00121492
0.000762822
0.00040385
0.000157693
3.74443e-05
1.01182e-05
1e-05
1e-05
1e-05
1e-05
1e-05
1e-05
1e-05
1e-05
1e-05
1e-05
1e-05
1e-05
1e-05
1e-05
1e-05
1e-05
1e-05
1e-05
1e-05
1e-05
1e-05
1e-05
1e-05
1e-05
1e-05
1e-05
1e-05
1e-05
1e-05
1e-05
1e-05
1e-05
1e-05
1e-05
1e-05
1e-05
1e-05
1e-05
1e-05
1e-05
1e-05
1e-05
1e-05
1e-05
1e-05
1e-05
1e-05
1e-05
1e-05
1e-05
1e-05
1e-05
1e-05
1e-05
1e-05
1e-05
1e-05
1e-05
1e-05
1e-05
1e-05
1e-05
1.03833e-05
6.66504e-05
0.000282003
0.0006636
0.00117208
0.00178089
0.00250714
0.0034506
0.00486192
0.00724155
0.0114359
0.0186666
0.0304982
0.0479117
0.0719032
0.104964
0.145052
0.181824
0.205808
0.21326
0.203506
0.177405
0.139366
0.0996068