# vtk DataFile Version 2.0
time_10.vtk
ASCII
DATASET STRUCTURED_GRID
DIMENSIONS 100 100 1
POINTS 10000 float
-0.4 -0.4 0
-0.4 0 0
-0.4 0.4 0
-0.4 0.8 0
-0.4 1.2 0
-0.4 1.6 0
-0.4 2 0
-0.4 2.4 0
-0.4 2.8 0
-0.4 3.2 0
-0.4 3.6 0
-0.4 4 0
-0.4 4.4 0
-0.4 4.8 0
-0.4 5.2 0
-0.4 5.6 0
-0.4 6 0
-0.4 6.4 0
-0.4 6.8 0
-0.4 7.2 0
-0.4 7.6 0
-0.4 8 0
-0.4 8.4 0
-0.4 8.8 0
-0.4 9.2 0
-0.4 9.6 0
-0.4 10 0
-0.4 10.4 0
-0.4 10.8 0
-0.4 11.2 0
-0.4 11.6 0
-0.4 12 0
-0.4 12.4 0
-0.4 12.8 0
-0.4 13.2 0
-0.4 13.6 0
-0.4 14 0
-0.4 14.4 0
-0.4 14.8 0
-0.4 15.2 0
-0.4 15.6 0
-0.4 16 0
-0.4 16.4 0
-0.4 16.8 0
-0.4 17.2 0
-0.4 17.6 0
-0.4 18 0
-0.4 18.4 0
-0.4 18.8 0
-0.4 19.2 0
-0.4 19.6 0
-0.4 20 0
-0.4 20.4 0
-0.4 20.8 0
-0.4 21.2 0
-0.4 21.6 0
-0.4 22 0
-0.4 22.4 0
-0.4 22.8 0
-0.4 23.2 0
-0.4 23.6 0
-0.4 24 0
-0.4 24.4 0
-0.4 24.8 0
-0.4 25.2 0
-0.4 25.6 0
-0.4 26 0
-0.4 26.4 0
-0.4 26.8 0
-0.4 27.2 0
-0.4 27.6 0
-0.4 28 0
-0.4 28.4 0
-0.4 28.8 0
-0.4 29.2 0
-0.4 29.6 0
-0.4 30 0
-0.4 30.4 0
-0.4 30.8 0
-0.4 31.2 0
-0.4 31.6 0
-0.4 32 0
-0.4 32.4 0
-0.4 32.8 0
-0.4 33.2 0
-0.4 33.6 0
-0.4 34 0
-0.4 34.4 0
-0.4 34.8 0
-0.4 35.2 0
-0.4 35.6 0
-0.4 36 0
-0.4 36.4 0
-0.4 36.8 0
-0.4 37.2 0
-0.4 37.6 0
-0.4 38 0
-0.4 38.4 0
-0.4 38.8 0
-0.4 39.2 0
0 -0.4 0
0 0 0
0 0.4 0
0 0.8 0
0 1.2 0
0 1.6 0
0 2 0
0 2.4 0
0 2.8 0
0 3.2 0
0 3.6 0
0 4 0
0 4.4 0
0 4.8 0
0 5.2 0
0 5.6 0
0 6 0
0 6.4 0
0 6.8 0
0 7.2 0
0 7.6 0
0 8 0
0 8.4 0
0 8.8 0
0 9.2 0
0 9.6 0
0 10 0
0 10.4 0
0 10.8 0
0 11.2 0
0 11.6 0
0 12 0
0 12.4 0
0 12.8 0
0 13.2 0
0 13.6 0
0 14 0
0 14.4 0
0 14.8 0
0 15.2 0
0 15.6 0
0 16 0
0 16.4 0
0 16.8 0
0 17.2 0
0 17.6 0
0 18 0
0 18.4 0
0 18.8 0
0 19.2 0
0 19.6 0
0 20 0
0 20.4 0
0 20.8 0
0 21.2 0
0 21.6 0
0 22 0
0 22.4 0
0 22.8 0
0 23.2 0
0 23.6 0
0 24 0
0 24.4 0
0 24.8 0
0 25.2 0
0 25.6 0
0 26 0
0 26.4 0
0 26.8 0
0 27.2 0
0 27.6 0
0 28 0
0 28.4 0
0 28.8 0
0 29.2 0
0 29.6 0
0 30 0
0 30.4 0
0 30.8 0
0 31.2 0
0 31.6 0
0 32 0
0 32.4 0
0 32.8 0
0 33.2 0
0 33.6 0
0 34 0
0 34.4 0
0 34.8 0
0 35.2 0
0 35.6 0
0 36 0
0 36.4 0
0 36.8 0
0 37.2 0
0 37.6 0
0 38 0
0 38.4 0
0 38.8 0
0 39.2 0
0.4 -0.4 0
0.4 0 0
0.4 0.4 0
0.4 0.8 0
0.4 1.2 0
0.4 1.6 0
0.4 2 0
0.4 2.4 0
0.4 2.8 0
0.4 3.2 0
0.4 3.6 0
0.4 4 0
0.4 4.4 0
0.4 4.8 0
0.4 5.2 0
0.4 5.6 0
0.4 6 0
0.4 6.4 0
0.4 6.8 0
0.4 7.2 0
0.4 7.6 0
0.4 8 0
0.4 8.4 0
0.4 8.8 0
0.4 9.2 0
0.4 9.6 0
0.4 10 0
0.4 10.4 0
0.4 10.8 0
0.4 11.2 0
0.4 11.6 0
0.4 12 0
0.4 12.4 0
0.4 12.8 0
0.4 13.2 0
0.4 13.6 0
0.4 14 0
0.4 14.4 0
0.4 14.8 0
0.4 15.2 0
0.4 15.6 0
0.4 16 0
0.4 16.4 0
0.4 16.8 0
0.4 17.2 0
0.4 17.6 0
0.4 18 0
0.4 18.4 0
0.4 18.8 0
0.4 19.2 0
0.4 19.6 0
0.4 20 0
0.4 20.4 0
0.4 20.8 0
0.4 21.2 0
0.4 21.6 0
0.4 22 0
0.4 22.4 0
0.4 22.8 0
0.4 23.2 0
0.4 23.6 0
0.4 24 0
0.4 24.4 0
0.4 24.8 0
0.4 25.2 0
0.4 25.6 0
0.4 26 0
0.4 26.4 0
0.4 26.8 0
0.4 27.2 0
0.4 27.6 0
0.4 28 0
0.4 28.4 0
0.4 28.8 0
0.4 29.2 0
0.4 29.6 0
0.4 30 0
0.4 30.4 0
0.4 30.8 0
0.4 31.2 0
0.4 31.6 0
0.4 32 0
0.4 32.4 0
0.4 32.8 0
0.4 33.2 0
0.4 33.6 0
0.4 34 0
0.4 34.4 0
0.4 34.8 0
0.4 35.2 0
0.4 35.6 0
0.4 36 0
0.4 36.4 0
0.4 36.8 0
0.4 37.2 0
0.4 37.6 0
0.4 38 0
0.4 38.4 0
0.4 38.8 0
0.4 39.2 0
0.8 -0.4 0
0.8 0 0
0.8 0.4 0
0.8 0.8 0
0.8 1.2 0
0.8 1.6 0
0.8 2 0
0.8 2.4 0
0.8 2.8 0
0.8 3.2 0
0.8 3.6 0
0.8 4 0
0.8 4.4 0
0.8 4.8 0
0.8 5.2 0
0.8 5.6 0
0.8 6 0
0.8 6.4 0
0.8 6.8 0
0.8 7.2 0
0.8 7.6 0
0.8 8 0
0.8 8.4 0
0.8 8.8 0
0.8 9.2 0
0.8 9.6 0
0.8 10 0
0.8 10.4 0
0.8 10.8 0
0.8 11.2 0
0.8 11.6 0
0.8 12 0
0.8 12.4 0
0.8 12.8 0
0.8 13.2 0
0.8 13.6 0
0.8 14 0
0.8 14.4 0
0.8 14.8 0
0.8 15.2 0
0.8 15.6 0
0.8 16 0
0.8 16.4 0
0.8 16.8 0
0.8 17.2 0
0.8 17.6 0
0.8 18 0
0.8 18.4 0
0.8 18.8 0
0.8 19.2 0
0.8 19.6 0
0.8 20 0
0.8 20.4 0
0.8 20.8 0
0.8 21.2 0
0.8 21.6 0
0.8 22 0
0.8 22.4 0
0.8 22.8 0
0.8 23.2 0
0.8 23.6 0
0.8 24 0
0.8 24.4 0
0.8 24.8 0
0.8 25.2 0
0.8 25.6 0
0.8 26 0
0.8 26.4 0
0.8 26.8 0
0.8 27.2 0
0.8 27.6 0
0.8 28 0
0.8 28.4 0
0.8 28.8 0
0.8 29.2 0
0.8 29.6 0
0.8 30 0
0.8 30.4 0
0.8 30.8 0
0.8 31.2 0
0.8 31.6 0
0.8 32 0
0.8 32.4 0
0.8 32.8 0
0.8 33.2 0
0.8 33.6 0
0.8 34 0
0.8 34.4 0
0.8 34.8 0
0.8 35.2 0
0.8 35.6 0
0.8 36 0
0.8 36.4 0
0.8 36.8 0
0.8 37.2 0
0.8 37.6 0
0.8 38 0
0.8 38.4 0
0.8 38.8 0
0.8 39.2 0
1.2 -0.4 0
1.2 0 0
1.2 0.4 0
1.2 0.8 0
1.2 1.2 0
1.2 1.6 0
1.2 2 0
1.2 2.4 0
1.2 2.8 0
1.2 3.2 0
1.2 3.6 0
1.2 4 0
1.2 4.4 0
1.2 4.8 0
1.2 5.2 0
1.2 5.6 0
1.2 6 0
1.2 6.4 0
1.2 6.8 0
1.2 7.2 0
1.2 7.6 0
1.2 8 0
1.2 8.4 0
1.2 8.8 0
1.2 9.2 0
1.2 9.6 0
1.2 10 0
1.2 10.4 0
1.2 10.8 0
1.2 11.2 0
1.2 11.6 0
1.2 12 0
1.2 12.4 0
1.2 12.8 0
1.2 13.2 0
1.2 13.6 0
1.2 14 0
1.2 14.4 0
1.2 14.8 0
1.2 15.2 0
1.2 15.6 0
1.2 16 0
1.2 16.4 0
1.2 16.8 0
1.2 17.2 0
1.2 17.6 0
1.2 18 0
1.2 18.4 0
1.2 18.8 0
1.2 19.2 0
1.2 19.6 0
1.2 20 0
1.2 20.4 0
1.2 20.8 0
1.2 21.2 0
1.2 21.6 0
1.2 22 0
1.2 22.4 0
1.2 22.8 0
1.2 23.2 0
1.2 23.6 0
1.2 24 0
1.2 24.4 0
1.2 24.8 0
1.2 25.2 0
1.2 25.6 0
1.2 26 0
1.2 26.4 0
1.2 26.8 0
1.2 27.2 0
1.2 27.6 0
1.2 28 0
1.2 28.4 0
1.2 28.8 0
1.2 29.2 0
1.2 29.6 0
1.2 30 0
1.2 30.4 0
1.2 30.8 0
1.2 31.2 0
1.2 31.6 0
1.2 32 0
1.2 32.4 0
1.2 32.8 0
1.2 33.2 0
1.2 33.6 0
1.2 34 0
1.2 34.4 0
1.2 34.8 0
1.2 35.2 0
1.2 35.6 0
1.2 36 0
1.2 36.4 0
1.2 36.8 0
1.2 37.2 0
1.2 37.6 0
1.2 38 0
1.2 38.4 0
1.2 38.8 0
1.2 39.2 0
1.6 -0.4 0
1.6 0 0
1.6 0.4 0
1.6 0.8 0
1.6 1.2 0
1.6 1.6 0
1.6 2 0
1.6 2.4 0
1.6 2.8 0
1.6 3.2 0
1.6 3.6 0
1.6 4 0
1.6 4.4 0
1.6 4.8 0
1.6 5.2 0
1.6 5.6 0
1.6 6 0
1.6 6.4 0
1.6 6.8 0
1.6 7.2 0
1.6 7.6 0
1.6 8 0
1.6 8.4 0
1.6 8.8 0
1.6 9.2 0
1.6 9.6 0
1.6 10 0
1.6 10.4 0
1.6 10.8 0
1.6 11.2 0
1.6 11.6 0
1.6 12 0
1.6 12.4 0
1.6 12.8 0
1.6 13.2 0
1.6 13.6 0
1.6 14 0
1.6 14.4 0
1.6 14.8 0
1.6 15.2 0
1.6 15.6 0
1.6 16 0
1.6 16.4 0
1.6 16.8 0
1.6 17.2 0
1.6 17.6 0
1.6 18 0
1.6 18.4 0
1.6 18.8 0
1.6 19.2 0
1.6 19.6 0
1.6 20 0
1.6 20.4 0
1.6 20.8 0
1.6 21.2 0
1.6 21.6 0
1.6 22 0
1.6 22.4 0
1.6 22.8 0
1.6 23.2 0
1.6 23.6 0
1.6 24 0
1.6 24.4 0
1.6 24.8 0
1.6 25.2 0
1.6 25.6 0
1.6 26 0
1.6 26.4 0
1.6 26.8 0
1.6 27.2 0
1.6 27.6 0
1.6 28 0
1.6 28.4 0
1.6 28.8 0
1.6 29.2 0
1.6 29.6 0
1.6 30 0
1.6 30.4 0
1.6 30.8 0
1.6 31.2 0
1.6 31.6 0
1.6 32 0
1.6 32.4 0
1.6 32.8 0
1.6 33.2 0
1.6 33.6 0
1.6 34 0
1.6 34.4 0
1.6 34.8 0
1.6 35.2 0
1.6 35.6 0
1.6 36 0
1.6 36.4 0
1.6 36.8 0
1.6 37.2 0
1.6 37.6 0
1.6 38 0
1.6 38.4 0
1.6 38.8 0
1.6 39.2 0
2 -0.4 0
2 0 0
2 0.4 0
2 0.8 0
2 1.2 0
2 1.6 0
2 2 0
2 2.4 0
2 2.8 0
2 3.2 0
2 3.6 0
2 4 0
2 4.4 0
2 4.8 0
2 5.2 0
2 5.6 0
2 6 0
2 6.4 0
2 6.8 0
2 7.2 0
2 7.6 0
2 8 0
2 8.4 0
2 8.8 0
2 9.2 0
2 9.6 0
2 10 0
2 10.4 0
2 10.8 0
2 11.2 0
2 11.6 0
2 12 0
2 12.4 0
2 12.8 0
2 13.2 0
2 13.6 0
2 14 0
2 14.4 0
2 14.8 0
2 15.2 0
2 15.6 0
2 16 0
2 16.4 0
2 16.8 0
2 17.2 0
2 17.6 0
2 18 0
2 18.4 0
2 18.8 0
2 19.2 0
2 19.6 0
2 20 0
2 20.4 0
2 20.8 0
2 21.2 0
2 21.6 0
2 22 0
2 22.4 0
2 22.8 0
2 23.2 0
2 23.6 0
2 24 0
2 24.4 0
2 24.8 0
2 25.2 0
2 25.6 0
2 26 0
2 26.4 0
2 26.8 0
2 27.2 0
2 27.6 0
2 28 0
2 28.4 0
2 28.8 0
2 29.2 0
2 29.6 0
2 30 0
2 30.4 0
2 30.8 0
2 31.2 0
2 31.6 0
2 32 0
2 32.4 0
2 32.8 0
2 33.2 0
2 33.6 0
2 34 0
2 34.4 0
2 34.8 0
2 35.2 0
2 35.6 0
2 36 0
2 36.4 0
2 36.8 0
2 37.2 0
2 37.6 0
2 38 0
2 38.4 0
2 38.8 0
2 39.2 0
2.4 -0.4 0
2.4 0 0
2.4 0.4 0
2.4 0.8 0
2.4 1.2 0
2.4 1.6 0
2.4 2 0
2.4 2.4 0
2.4 2.8 0
2.4 3.2 0
2.4 3.6 0
2.4 4 0
2.4 4.4 0
2.4 4.8 0
2.4 5.2 0
2.4 5.6 0
2.4 6 0
2.4 6.4 0
2.4 6.8 0
2.4 7.2 0
2.4 7.6 0
2.4 8 0
2.4 8.4 0
2.4 8.8 0
2.4 9.2 0
2.4 9.6 0
2.4 10 0
2.4 10.4 0
2.4 10.8 0
2.4 11.2 0
2.4 11.6 0
2.4 12 0
2.4 12.4 0
2.4 12.8 0
2.4 13.2 0
2.4 13.6 0
2.4 14 0
2.4 14.4 0
2.4 14.8 0
2.4 15.2 0
2.4 15.6 0
2.4 16 0
2.4 16.4 0
2.4 16.8 0
2.4 17.2 0
2.4 17.6 0
2.4 18 0
2.4 18.4 0
2.4 18.8 0
2.4 19.2 0
2.4 19.6 0
2.4 20 0
2.4 20.4 0
2.4 20.8 0
2.4 21.2 0
2.4 21.6 0
2.4 22 0
2.4 22.4 0
2.4 22.8 0
2.4 23.2 0
2.4 23.6 0
2.4 24 0
2.4 24.4 0
2.4 24.8 0
2.4 25.2 0
2.4 25.6 0
2.4 26 0
2.4 26.4 0
2.4 26.8 0
2.4 27.2 0
2.4 27.6 0
2.4 28 0
2.4 28.4 0
2.4 28.8 0
2.4 29.2 0
2.4 29.6 0
2.4 30 0
2.4 30.4 0
2.4 30.8 0
2.4 31.2 0
2.4 31.6 0
2.4 32 0
2.4 32.4 0
2.4 32.8 0
2.4 33.2 0
2.4 33.6 0
2.4 34 0
2.4 34.4 0
2.4 34.8 0
2.4 35.2 0
2.4 35.6 0
2.4 36 0
2.4 36.4 0
2.4 36.8 0
2.4 37.2 0
2.4 37.6 0
2.4 38 0
2.4 38.4 0
2.4 38.8 0
2.4 39.2 0
2.8 -0.4 0
2.8 0 0
2.8 0.4 0
2.8 0.8 0
2.8 1.2 0
2.8 1.6 0
2.8 2 0
2.8 2.4 0
2.8 2.8 0
2.8 3.2 0
2.8 3.6 0
2.8 4 0
2.8 4.4 0
2.8 4.8 0
2.8 5.2 0
2.8 5.6 0
2.8 6 0
2.8 6.4 0
2.8 6.8 0
2.8 7.2 0
2.8 7.6 0
2.8 8 0
2.8 8.4 0
2.8 8.8 0
2.8 9.2 0
2.8 9.6 0
2.8 10 0
2.8 10.4 0
2.8 10.8 0
2.8 11.2 0
2.8 11.6 0
2.8 12 0
2.8 12.4 0
2.8 12.8 0
2.8 13.2 0
2.8 13.6 0
2.8 14 0
2.8 14.4 0
2.8 14.8 0
2.8 15.2 0
2.8 15.6 0
2.8 16 0
2.8 16.4 0
2.8 16.8 0
2.8 17.2 0
2.8 17.6 0
2.8 18 0
2.8 18.4 0
2.8 18.8 0
2.8 19.2 0
2.8 19.6 0
2.8 20 0
2.8 20.4 0
2.8 20.8 0
2.8 21.2 0
2.8 21.6 0
2.8 22 0
2.8 22.4 0
2.8 22.8 0
2.8 23.2 0
2.8 23.6 0
2.8 24 0
2.8 24.4 0
2.8 24.8 0
2.8 25.2 0
2.8 25.6 0
2.8 26 0
2.8 26.4 0
2.8 26.8 0
2.8 27.2 0
2.8 27.6 0
2.8 28 0
2.8 28.4 0
2.8 28.8 0
2.8 29.2 0
2.8 29.6 0
2.8 30 0
2.8 30.4 0
2.8 30.8 0
2.8 31.2 0
2.8 31.6 0
2.8 32 0
2.8 32.4 0
2.8 32.8 0
2.8 33.2 0
2.8 33.6 0
2.8 34 0
2.8 34.4 0
2.8 34.8 0
2.8 35.2 0
2.8 35.6 0
2.8 36 0
2.8 36.4 0
2.8 36.8 0
2.8 37.2 0
2.8 37.6 0
2.8 38 0
2.8 38.4 0
2.8 38.8 0
2.8 39.2 0
3.2 -0.4 0
3.2 0 0
3.2 0.4 0
3.2 0.8 0
3.2 1.2 0
3.2 1.6 0
3.2 2 0
3.2 2.4 0
3.2 2.8 0
3.2 3.2 0
3.2 3.6 0
3.2 4 0
3.2 4.4 0
3.2 4.8 0
3.2 5.2 0
3.2 5.6 0
3.2 6 0
3.2 6.4 0
3.2 6.8 0
3.2 7.2 0
3.2 7.6 0
3.2 8 0
3.2 8.4 0
3.2 8.8 0
3.2 9.2 0
3.2 9.6 0
3.2 10 0
3.2 10.4 0
3.2 10.8 0
3.2 11.2 0
3.2 11.6 0
3.2 12 0
3.2 12.4 0
3.2 12.8 0
3.2 13.2 0
3.2 13.6 0
3.2 14 0
3.2 14.4 0
3.2 14.8 0
3.2 15.2 0
3.2 15.6 0
3.2 16 0
3.2 16.4 0
3.2 16.8 0
3.2 17.2 0
3.2 17.6 0
3.2 18 0
3.2 18.4 0
3.2 18.8 0
3.2 19.2 0
3.2 19.6 0
3.2 20 0
3.2 20.4 0
3.2 20.8 0
3.2 21.2 0
3.2 21.6 0
3.2 22 0
3.2 22.4 0
3.2 22.8 0
3.2 23.2 0
3.2 23.6 0
3.2 24 0
3.2 24.4 0
3.2 24.8 0
3.2 25.2 0
3.2 25.6 0
3.2 26 0
3.2 26.4 0
3.2 26.8 0
3.2 27.2 0
3.2 27.6 0
3.2 28 0
3.2 28.4 0
3.2 28.8 0
3.2 29.2 0
3.2 29.6 0
3.2 30 0
3.2 30.4 0
3.2 30.8 0
3.2 31.2 0
3.2 31.6 0
3.2 32 0
3.2 32.4 0
3.2 32.8 0
3.2 33.2 0
[...]
POINT_DATA 10000
SCALARS CON float 1
LOOKUP_TABLE default
1e-05
1e-05
1e-05
1e-05
1e-05
1e-05
1e-05
1e-05
1e-05
1e-05
1e-05
1e-05
1e-05
1e-05
1e-05
1e-05
1e-05
1e-05
1e-05
1e-05
1e-05
1e-05
1e-05
1e-05
1e-05
1e-05
1e-05
1e-05
1e-05
1e-05
1e-05
1e-05
1e-05
1e-05
1e-05
1e-05
1e-05
1e-05
1e-05
1e-05
1e-05
1e-05
1e-05
1e-05
1e-05
1e-05
1e-05
1e-05
1e-05
1e-05
1e-05
1e-05
1e-05
1e-05
1e-05
1e-05
1e-05
1e-05
1e-05
1e-05
1e-05
1e-05
1e-05
1e-05
1e-05
1e-05
1e-05
1e-05
1e-05
1e-05
1e-05
1e-05
1e-05
1e-05
1e-05
1e-05
1e-05
1e-05
1e-05
1e-05
1e-05
1e-05
1e-05
1e-05
1e-05
1e-05
1e-05
1e-05
1e-05
1e-05
1e-05
1e-05
1e-05
1e-05
1e-05
1e-05
1e-05
1e-05
1e-05
1e-05
1e-05
1e-05
1e-05
1e-05
1e-05
1e-05
1e-05
1e-05
1e-05
1e-05
1e-05
1e-05
1e-05
1e-05
1e-05
1e-05
1e-05
1e-05
1e-05
1e-05
1e-05
1e-05
1e-05
1e-05
1e-05
1e-05
1e-05
1e-05
1e-05
1e-05
1e-05
1e-05
1e-05
1e-05
1e-05
1e-05
1e-05
1e-05
1e-05
1e-05
1e-05
1e-05
1e-05
1e-05
1e-05
1e-05
1e-05
1e-05
1e-05
1e-05
1e-05
1e-05
1e-05
1e-05
1e-05
1e-05
1e-05
1e-05
1e-05
1e-05
1e-05
1e-05
1e-05
1e-05
1e-05
1e-05
1e-05
1e-05
1e-05
1e-05
1e-05
1e-05
1e-05
1e-05
1e-05
1e-05
1e-05
1e-05
1e-05
1e-05
1e-05
1e-05
1e-05
1e-05
1e-05
1e-05
1e-05
1e-05
1e-05
1e-05
1e-05
1e-05
1e-05
1e-05
1e-05
1e-05
1e-05
1e-05
1e-05
1e-05
1e-05
1e-05
1e-05
1e-05
1e-05
1e-05
1e-05
1e-05
1e-05
1e-05
1e-05
1e-05
1e-05
1e-05
1e-05
1e-05
1e-05
1e-05
1e-05
1e-05
1e-05
1e-05
1e-05
1e-05
1e-05
1e-05
1e-05
1e-05
1e-05
1e-05
1e-05
1e-05
1e-05
1e-05
1e-05
1e-05
1e-05
1e-05
1e-05
1e-05
1e-05
1e-05
1e-05
1e-05
1e-05
1e-05
1e-05
1e-05
1e-05
1e-05
1e-05
1e-05
1e-05
1e-05
1e-05
1e-05
1e-05
1e-05
1e-05
1e-05
1e-05
1e-05
1e-05
1e-05
1e-05
1e-05
1e-05
1e-05
1e-05
1e-05
1e-05
1e-05
1e-05
1e-05
1e-05
1e-05
1e-05
1e-05
1e-05
1e-05
1e-05
1e-05
1e-05
1e-05
1e-05
1e-05
1e-05
1e-05
1e-05
1e-05
1e-05
1e-05
1e-05
1e-05
1e-05
1e-05
1e-05
1e-05
1e-05
1e-05
1e-05
1e-05
1e-05
1e-05
1e-05
1e-05
1e-05
1e-05
1e-05
1e-05
1e-05
1e-05
1e-05
1e-05
1e-05
1e-05
1e-05
1e-05
1e-05
1e-05
1e-05
1e-05
1e-05
1e-05
1e-05
1e-05
1e-05
1e-05
1e-05
1e-05
1e-05
1e-05
1e-05
1e-05
1e-05
1e-05
1e-05
1e-05
1e-05
1e-05
1e-05
1e-05
1e-05
1e-05
1e-05
1e-05
1e-05
1e-05
1e-05
1e-05
1e-05
1e-05
1e-05
1e-05
1e-05
1e-05
1e-05
1e-05
1e-05
1e-05
1e-05
1e-05
1e-05
1e-05
1e-05
1e-05
1e-05
1e-05
1e-05
1e-05
1e-05
1e-05
1e-05
1e-05
1e-05
1e-05
1e-05
1e-05
1e-05
1e-05
1e-05
1e-05
1e-05
1e-05
1e-05
1e-05
1e-05
1e-05
1e-05
1e-05
1e-05
1e-05
1e-05
1e-05
1e-05
1e-05
1e-05
1e-05
1e-05
1e-05
1e-05
1e-05
1e-05
1e-05
1e-05
1e-05
1e-05
1e-05
1e-05
1e-05
1e-05
1e-05
1e-05
1e-05
1e-05
1e-05
1e-05
1e-05
1e-05
1e-05
1e-05
1e-05
1e-05
1e-05
1e-05
1e-05
1e-05
1e-05
1e-05
1e-05
1e-05
1e-05
1e-05
1e-05
1e-05
1e-05
1e-05
1e-05
1e-05
1e-05
1e-05
1e-05
1e-05
1e-05
1e-05
1e-05
1e-05
1e-05
1e-05
1e-05
1e-05
1e-05
1e-05
1e-05
1e-05
1e-05
1e-05
1e-05
1e-05
1e-05
1e-05
1e-05
1e-05
1e-05
1e-05
1e-05
1e-05
1e-05
1e-05
1e-05
1e-05
1e-05
1e-05
1e-05
1e-05
1e-05
1e-05
1e-05
1e-05
1e-05
1e-05
1e-05
1e-05
1e-05
1e-05
1e-05
1e-05
1e-05
1e-05
1e-05
1e-05
1e-05
1e-05
1e-05
1e-05
1e-05
1e-05
1e-05
1e-05
1e-05
1e-05
1e-05
1e-05
1e-05
1e-05
1e-05
1e-05
1e-05
1e-05
1e-05
1e-05
1e-05
1e-05
1e-05
1e-05
1e-05
1e-05
1e-05
1e-05
1e-05
1e-05
1e-05
1e-05
1e-05
1e-05
1e-05
1e-05
1e-05
1e-05
1e-05
1e-05
1e-05
1e-05
1e-05
1e-05
1e-05
1e-05
1e-05
1e-05
1e-05
1e-05
1e-05
1e-05
1e-05
1e-05
1e-05
1e-05
1e-05
1e-05
1e-05
1e-05
1e-05
1e-05
1e-05
1e-05
1e-05
1e-05
1e-05
1e-05
1e-05
1e-05
1e-05
1e-05
1e-05
1e-05
1e-05
1e-05
1e-05
1e-05
1e-05
1e-05
1e-05
1e-05
1e-05
1e-05
1e-05
1e-05
1e-05
1e-05
1e-05
1e-05
1e-05
1e-05
1e-05
1e-05
1e-05
1e-05
1e-05
1e-05
1e-05
1e-05
1e-05
1e-05
1e-05
1e-05
1e-05
1e-05
1e-05
1e-05
1e-05
1e-05
1e-05
1e-05
1e-05
1e-05
1e-05
1e-05
1e-05
1e-05
1e-05
1e-05
1e-05
1e-05
1e-05
1e-05
1e-05
1e-05
1e-05
1e-05
1e-05
1e-05
1e-05
1e-05
1e-05
1e-05
1e-05
1e-05
1e-05
1e-05
1.28502e-05
1.99745e-05
2.52883e-05
2.54337e-05
2.07882e-05
1.43839e-05
1.02144e-05
1e-05
1e-05
1e-05
1e-05
1e-05
1e-05
1e-05
1e-05
1e-05
1e-05
1e-05
1e-05
1e-05
1e-05
1e-05
1e-05
1e-05
1e-05
1e-05
1e-05
1e-05
1e-05
1e-05
1e-05
1e-05
1e-05
1e-05
1e-05
1e-05
1e-05
1e-05
1e-05
1e-05
1e-05
1e-05
1e-05
1e-05
1e-05
1e-05
1e-05
1e-05
1e-05
1e-05
1e-05
1e-05
1e-05
1e-05
1e-05
1e-05
1e-05
1e-05
1e-05
1e-05
1e-05
1e-05
1e-05
1e-05
1e-05
1e-05
1e-05
1e-05
1e-05
1e-05
1e-05
1e-05
1e-05
1e-05
1e-05
1e-05
1e-05
1e-05
1e-05
1e-05
1e-05
1e-05
1e-05
1e-05
1e-05
1e-05
1e-05
1e-05
1e-05
1e-05
1e-05
1e-05
1e-05
1e-05
1e-05
1.00022e-05
3.20996e-05
0.000107889
0.000268212
0.000512518
0.000774182
0.000985573
0.00110691
0.00112165
0.00103018
0.000848329
0.000609648
0.000366501
0.000176396
6.43539e-05
1.59146e-05
1e-05
1e-05
1e-05
1e-05
1e-05
1e-05
1e-05
1e-05
1e-05
1e-05
1e-05
1e-05
1e-05
1e-05
1e-05
1e-05
1e-05
1e-05
1e-05
1e-05
1e-05
1e-05
1e-05
1e-05
1e-05
1e-05
1e-05
1e-05
1e-05
1e-05
1e-05
1e-05
1e-05
1e-05
1e-05
1e-05
1e-05
1e-05
1e-05
1e-05
1e-05
1e-05
1e-05
1e-05
1e-05
1e-05
1e-05
1e-05
1e-05
1e-05
1e-05
1e-05
1e-05
1e-05
1e-05
1e-05
1e-05
1e-05
1e-05
1e-05
1e-05
1e-05
1e-05
1e-05
1e-05
1e-05
1e-05
1e-05
1e-05
1e-05
1e-05
1e-05
1e-05
1e-05
1e-05
1e-05
1e-05
1e-05
1e-05
1e-05
1e-05
1.32898e-05
5.92697e-05
0.000227799
0.000683125
0.00130296
0.00195817
0.00263124
0.00331311
0.0039438
0.00443718
0.00471844
0.00474528
0.00451719
0.00407416
0.00348466
0.00282439
0.00214923
0.00147724
0.000821784
0.00028626
5.9225e-05
1.00646e-05
1e-05
1e-05
1e-05
1e-05
1e-05
1e-05
1e-05
1e-05
1e-05
1e-05
1e-05
1e-05
1e-05
1e-05
1e-05
1e-05
1e-05
1e-05
1e-05
1e-05
1e-05
1e-05
1e-05
1e-05
1e-05
1e-05
1e-05
1e-05
1e-05
1e-05
1e-05
1e-05
1e-05
1e-05
1e-05
1e-05
1e-05
1e-05
1e-05
1e-05
1e-05
1e-05
1e-05
1e-05
1e-05
1e-05
1e-05
1e-05
1e-05
1e-05
1e-05
1e-05
1e-05
1e-05
1e-05
1e-05
1e-05
1e-05
1e-05
1e-05
1e-05
1e-05
1e-05
1e-05
1e-05
1e-05
1e-05
1e-05
1e-05
1e-05
1e-05
1e-05
1e-05
1e-05
1e-05
1.48637e-05
7.31704e-05
0.000311007
0.000910618
0.00169029
0.00265482
0.00392979
0.00550253
0.00728098
0.00917915
0.0110826
0.012809
0.0141257
0.0148147
0.014746
0.0139263
0.0124975
0.0106854
0.00872574
0.0068052
0.00504037
0.00349598
0.00222521
0.00125195
0.00049269
7.75195e-05
1e-05
1e-05
1e-05
1e-05
1e-05
1e-05
1e-05
1e-05
1e-05
1e-05
1e-05
1e-05
1e-05
1e-05
1e-05
1e-05
1e-05
1e-05
1e-05
1e-05
1e-05
1e-05
1e-05
1e-05
1e-05
1e-05
1e-05
1e-05
1e-05
1e-05
1e-05
1e-05
1e-05
1e-05
1e-05
1e-05
1e-05
1e-05
1e-05
1e-05
1e-05
1e-05
1e-05
1e-05
1e-05
1e-05
1e-05
1e-05
1e-05
1e-05
1e-05
1e-05
1e-05
1e-05
1e-05
1e-05
1e-05
1e-05
1e-05
1e-05
1e-05
1e-05
1e-05
1e-05
1e-05
1e-05
1e-05
1e-05
1e-05
1e-05
1e-05
1e-05
3.98591e-05
0.000235013
0.000804432
0.00160087
0.00268647
0.00428172
0.00648595
0.0094481
0.0133433
0.0182088
0.023897
0.0301177
0.0364168
0.0421226
0.0464004
0.0484635
0.0478469
0.0445943
0.0392579
0.0327047
0.0258398
0.0194083
0.0139174
0.0095907
0.00637808
0.00405978
0.00236799
0.00116747
0.000358846
2.80477e-05
1e-05
1e-05
1e-05
1e-05
1e-05
1e-05
1e-05
1e-05
1e-05
1e-05
1e-05
1e-05
1e-05
1e-05
1e-05
1e-05
1e-05
1e-05
1e-05
1e-05
1e-05
1e-05
1e-05
1e-05
1e-05
1e-05
1e-05
1e-05
1e-05
1e-05
1e-05
1e-05
1e-05
1e-05
1e-05
1e-05
1e-05
1e-05
1e-05
1e-05
1e-05
1e-05
1e-05
1e-05
1e-05
1e-05
1e-05
1e-05
1e-05
1e-05
1e-05
1e-05
1e-05
1e-05
1e-05
1e-05
1e-05
1e-05
1e-05
1e-05
1e-05
1e-05
1e-05
1e-05
1e-05
1e-05
1e-05
1e-05
3.50537e-05
0.000317419
0.000998005
0.00194987
0.00336932
0.00546601
0.00863652
0.0134749
0.0206279
0.0307415
0.0443215
0.0613736
0.0812144
0.102675
0.124127
0.14329
0.157397
0.163891
0.161269
0.149646
0.13079
0.107582
0.0831601
0.060285
0.041073
0.0265779
0.0165842
0.0101288
0.00607357
0.00349092
0.00177063
0.000663191
7.4232e-05
1e-05
1e-05
1e-05
1e-05
1e-05
1e-05
1e-05
1e-05
1e-05
1e-05
1e-05
1e-05
1e-05
1e-05
1e-05
1e-05
1e-05
1e-05
1e-05
1e-05
1e-05
1e-05
1e-05
1e-05
1e-05
1e-05
1e-05
1e-05
1e-05
1e-05
1e-05
1e-05
1e-05
1e-05
1e-05
1e-05
1e-05
1e-05
1e-05
1e-05
1e-05
1e-05
1e-05
1e-05
1e-05
1e-05
1e-05
1e-05
1e-05
1e-05
1e-05
1e-05
1e-05
1e-05
1e-05
1e-05
1e-05
1e-05
1e-05
1e-05
1e-05
1e-05
1e-05
1e-05
1e-05
1e-05
0.000134947
0.000757203
0.00175642
0.00324742
0.00548103
0.0091293
0.0152981
0.0256034
0.0420963
0.0669316
0.101862
0.147691
0.202849
0.263091
0.323543
0.379587
0.426306
0.45875
0.472979
0.466714
0.439537
0.393242
0.3321
0.26238
0.191783
0.128925
0.0802214
0.0468278
0.0262097
0.0144525
0.00799539
0.00436457
0.0021757
0.000801474
8.78729e-05
1e-05
1e-05
1e-05
1e-05
1e-05
1e-05
1e-05
1e-05
1e-05
1e-05
1e-05
1e-05
1e-05
1e-05
1e-05
1e-05
1e-05
1e-05
1e-05
1e-05
1e-05
1e-05
1e-05
1e-05
1e-05
1e-05
1e-05
1e-05
1e-05
1e-05
1e-05
1e-05
1e-05
1e-05
1e-05
1e-05
1e-05
1e-05
1e-05
1e-05
1e-05
1e-05
1e-05
1e-05
1e-05
1e-05
1e-05
1e-05
1e-05
1e-05
1e-05
1e-05
1e-05
1e-05
1e-05
1e-05
1e-05
1e-05
1e-05
1e-05
1e-05
1e-05
1e-05
1e-05
0.00020379
0.0010171
0.0023556
0.00433159
0.00754809
0.0133505
0.0242712
0.0443136
0.0787868
0.133204
0.210892
0.310001
0.423131
0.53546
0.630343
0.701185
0.750827
0.784101
0.804202
0.812519
0.809117
0.792802
0.760593
0.70674
0.622911
0.505001
0.367013
0.237838
0.138224
0.0735326
0.0370528
0.0184436
0.00936846
0.0048024
0.00225892
0.000750198
5.07633e-05
1e-05
1e-05
1e-05
1e-05
1e-05
1e-05
1e-05
1e-05
1e-05
1e-05
1e-05
1e-05
1e-05
1e-05
1e-05
1e-05
1e-05
1e-05
1e-05
1e-05
1e-05
1e-05
1e-05
1e-05
1e-05
1e-05
1e-05
1e-05
1e-05
1e-05
1e-05
1e-05
1e-05
1e-05
1e-05
1e-05
1e-05
1e-05
1e-05
1e-05
1e-05
1e-05
1e-05
1e-05
1e-05
1e-05
1e-05
1e-05
1e-05
1e-05
1e-05
1e-05
1e-05
1e-05
1e-05
1e-05
1e-05
1e-05
1e-05
1e-05
1e-05
1e-05
0.000151579
0.00103264
0.00257603
0.00494961
0.00904492
0.0171707
0.0341279
0.0682869
0.131136
0.232752
0.372208
0.52852
0.665749
0.766042
0.833935
0.878479
0.907118
0.925413
0.936979
0.943794
0.946731
0.945932
0.940869
0.930031
0.91012
0.874737
0.813034
0.709682
0.552826
0.364604
0.203534
0.100018
0.0457897
0.0207699
0.0097649
0.00468425
0.00201307
0.000528821
1.40233e-05
1e-05
1e-05
1e-05
1e-05
1e-05
1e-05
1e-05
1e-05
1e-05
1e-05
1e-05
1e-05
1e-05
1e-05
1e-05
1e-05
1e-05
1e-05
1e-05
1e-05
1e-05
1e-05
1e-05
1e-05
1e-05
1e-05
1e-05
1e-05
1e-05
1e-05
1e-05
1e-05
1e-05
1e-05
1e-05
1e-05
1e-05
1e-05
1e-05
1e-05
1e-05
1e-05
1e-05
1e-05
1e-05
1e-05
1e-05
1e-05
1e-05
1e-05
1e-05
1e-05
1e-05
1e-05
1e-05
1e-05
1e-05
1e-05
1e-05
1e-05
4.52666e-05
0.000795124
0.00237349
0.00492116
0.00949903
0.019263
0.0416859
0.0913303
0.188882
0.346605
0.539555
0.706887
0.819463
0.887252
0.926632
0.949661
0.963402
0.971751
0.976934
0.980212
0.982236
0.983289
0.983413
0.982427
0.979815
0.974419
0.963813
0.94309
0.902402
0.823138
0.679143
0.465802
0.25389
0.116134
0.048785
0.02048
0.00904609
0.00405694
0.00151585
0.000220787
1e-05
1e-05
1e-05
1e-05
1e-05
1e-05
1e-05
1e-05
1e-05
1e-05
1e-05
1e-05
1e-05
1e-05
1e-05
1e-05
1e-05
1e-05
1e-05
1e-05
1e-05
1e-05
1e-05
1e-05
1e-05
1e-05
1e-05
1e-05
1e-05
1e-05
1e-05
1e-05
1e-05
1e-05
1e-05
1e-05
1e-05
1e-05
1e-05
1e-05
1e-05
1e-05
1e-05
1e-05
1e-05
1e-05
1e-05
1e-05
1e-05
1e-05
1e-05
1e-05
1e-05
1e-05
1e-05
1e-05
1e-05
1e-05
1e-05
1e-05
0.000359733
0.00178411
0.00425943
0.00875612
0.0187318
0.0435332
0.103926
0.231817
0.43816
0.658012
0.812033
0.898023
0.942235
0.964671
0.976183
0.982226
0.985496
0.98734
0.98846
0.989226
0.989817
0.990306
0.990696
0.990929
0.990845
0.990078
0.987824
0.982322
0.969647
0.940907
0.876827
0.743141
0.516374
0.270741
0.114792
0.0447003
0.0177199
0.00748013
0.00311111
0.000937182
4.14707e-05
1e-05
1e-05
1e-05
1e-05
1e-05
1e-05
1e-05
1e-05
1e-05
1e-05
1e-05
1e-05
1e-05
1e-05
1e-05
1e-05
1e-05
1e-05
1e-05
1e-05
1e-05
1e-05
1e-05
1e-05
1e-05
1e-05
1e-05
1e-05
1e-05
1e-05
1e-05
1e-05
1e-05
1e-05
1e-05
1e-05
1e-05
1e-05
1e-05
1e-05
1e-05
1e-05
1e-05
1e-05
1e-05
1e-05
1e-05
1e-05
1e-05
1e-05
1e-05
1e-05
1e-05
1e-05
1e-05
1e-05
1e-05
1e-05
5.08692e-05
0.00101301
0.00315389
0.00709583
0.0158307
0.0386795
0.0995368
0.241469
0.480899
0.718854
0.864574
0.935052
0.966475
0.980107
0.985863
0.988135
0.988892
0.989033
0.988978
0.988925
0.988969
0.989145
0.989462
0.989914
0.990482
0.991119
0.991718
0.992026
0.991446
0.988537
0.979758
0.95632
0.897138
0.760375
0.512574
0.248863
0.0969303
0.0355061
0.0136081
0.0055477
0.00205104
0.000365452
1e-05
1e-05
1e-05
1e-05
1e-05
1e-05
1e-05
1e-05
1e-05
1e-05
1e-05
1e-05
1e-05
1e-05
1e-05
1e-05
1e-05
1e-05
1e-05
1e-05
1e-05
1e-05
1e-05
1e-05
1e-05
1e-05
1e-05
1e-05
1e-05
1e-05
1e-05
1e-05
1e-05
1e-05
1e-05
1e-05
1e-05
1e-05
1e-05
1e-05
1e-05
1e-05
1e-05
1e-05
1e-05
1e-05
1e-05
1e-05
1e-05
1e-05
1e-05
1e-05
1e-05
1e-05
1e-05
1e-05
1e-05
1e-05
0.000229169
0.00184245
0.00500897
0.0117483
0.0295017
0.0802176
0.212818
0.465934
0.730299
0.883762
0.950699
0.97689
0.986405
0.989319
0.989681
0.989126
0.988333
0.987585
0.986999
0.986621
0.98646
0.986515
0.986776
0.987235
0.987883
0.988709
0.989686
0.990742
0.991684
0.991998
0.990308
0.982909
0.959829
0.895436
0.737371
0.456051
0.196785
0.0705289
0.0248717
0.00943257
0.00368596
0.00110605
5.66051e-05
1e-05
1e-05
1e-05
1e-05
1e-05
1e-05
1e-05
1e-05
1e-05
1e-05
1e-05
1e-05
1e-05
1e-05
1e-05
1e-05
1e-05
1e-05
1e-05
1e-05
1e-05
1e-05
1e-05
1e-05
1e-05
1e-05
1e-05
1e-05
1e-05
1e-05
1e-05
1e-05
1e-05
1e-05
1e-05
1e-05
1e-05
1e-05
1e-05
1e-05
1e-05
1e-05
1e-05
1e-05
1e-05
1e-05
1e-05
1e-05
1e-05
1e-05
1e-05
1e-05
1e-05
1e-05
1e-05
1e-05
1.25293e-05
0.000660822
0.00293721
0.00770656
0.0197064
0.0550762
0.157858
0.393955
0.693575
0.877311
0.953481
0.980473
0.988835
0.990499
0.989864
0.988554
0.987175
0.985954
0.984972
0.98425
0.983787
0.983571
0.98359
0.98383
0.984282
0.98494
0.985804
0.986871
0.988128
0.989521
0.990874
0.991654
0.990291
0.982218
0.954338
0.871809
0.668884
0.354227
0.133499
0.0449784
0.0157405
0.00598037
0.00212435
0.000367781
1e-05
1e-05
1e-05
1e-05
1e-05
1e-05
1e-05
1e-05
1e-05
1e-05
1e-05
1e-05
1e-05
1e-05
1e-05
1e-05
1e-05
1e-05
1e-05
1e-05
1e-05
1e-05
1e-05
1e-05
1e-05
1e-05
1e-05
1e-05
1e-05
1e-05
1e-05
1e-05
1e-05
1e-05
1e-05
1e-05
1e-05
1e-05
1e-05
1e-05
1e-05
1e-05
1e-05
1e-05
1e-05
1e-05
1e-05
1e-05
1e-05
1e-05
1e-05
1e-05
1e-05
1e-05
1e-05
1e-05
4.42774e-05
0.00125567
0.0043868
0.0117761
0.033033
0.0991199
0.281263
0.599161
0.841169
0.944477
0.979368
0.989297
0.990848
0.989757
0.987978
0.986177
0.984581
0.98326
0.982229
0.981482
0.981003
0.980776
0.980784
0.981015
0.981457
0.982109
0.98297
0.984046
0.985344
0.986857
0.988534
0.99017
0.991084
0.989133
0.977704
0.937069
0.815747
0.542911
0.232984
0.0785485
0.0258229
0.00923023
0.00345296
0.000982236
4.37171e-05
1e-05
1e-05
1e-05
1e-05
1e-05
1e-05
1e-05
1e-05
1e-05
1e-05
1e-05
1e-05
1e-05
1e-05
1e-05
1e-05
1e-05
1e-05
1e-05
1e-05
1e-05
1e-05
1e-05
1e-05
1e-05
1e-05
1e-05
1e-05
1e-05
1e-05
1e-05
1e-05
1e-05
1e-05
1e-05
1e-05
1e-05
1e-05
1e-05
1e-05
1e-05
1e-05
1e-05
1e-05
1e-05
1e-05
1e-05
1e-05
1e-05
1e-05
1e-05
1e-05
1e-05
1e-05
1e-05
0.000121383
0.0019285
0.00628745
0.0178419
0.0540171
0.167003
0.440458
0.757902
0.917605
0.972482
0.988008
0.99079
0.989727
0.987675
0.985543
0.983618
0.981983
0.980655
0.979627
0.978883
0.978407
0.97818
0.978186
0.978411
0.978846
0.979487
0.980337
0.981402
0.982695
0.984227
0.985993
0.98792
0.989705
0.990296
0.986233
0.966453
0.897804
0.704559
0.366539
0.129802
0.041202
0.0137844
0.00506464
0.00170012
0.000213264
1e-05
1e-05
1e-05
1e-05
1e-05
1e-05
1e-05
1e-05
1e-05
1e-05
1e-05
1e-05
1e-05
1e-05
1e-05
1e-05
1e-05
1e-05
1e-05
1e-05
1e-05
1e-05
1e-05
1e-05
1e-05
1e-05
1e-05
1e-05
1e-05
1e-05
1e-05
1e-05
1e-05
1e-05
1e-05
1e-05
1e-05
1e-05
1e-05
1e-05
1e-05
1e-05
1e-05
1e-05
1e-05
1e-05
1e-05
1e-05
1e-05
1e-05
1e-05
1e-05
1e-05
1e-05
1e-05
0.000277498
0.00271955
0.00879569
0.0265186
0.0844996
0.258919
0.599119
0.855341
0.954328
0.983613
0.990107
0.98982
0.987731
0.985347
0.98312
0.981179
0.979553
0.978239
0.977224
0.97649
0.97602
0.975795
0.9758
0.976022
0.976451
0.977084
0.977921
0.978972
0.980248
0.981769
0.983546
0.985561
0.987677
0.98935
0.988666
0.979188
0.940137
0.813032
0.514172
0.20033
0.0631933
0.0199996
0.00699819
0.00250281
0.000577319
1.57559e-05
1e-05
1e-05
1e-05
1e-05
1e-05
1e-05
1e-05
1e-05
1e-05
1e-05
1e-05
1e-05
1e-05
1e-05
1e-05
1e-05
1e-05
1e-05
1e-05
1e-05
1e-05
1e-05
1e-05
1e-05
1e-05
1e-05
1e-05
1e-05
1e-05
1e-05
1e-05
1e-05
1e-05
1e-05
1e-05
1e-05
1e-05
1e-05
1e-05
1e-05
1e-05
1e-05
1e-05
1e-05
1e-05
1e-05
1e-05
1e-05
1e-05
1e-05
1e-05
1e-05
1e-05
1e-05
0.000592725
0.00372914
0.0120712
0.0382417
0.125201
0.368109
0.721794
0.910028
0.971731
0.987655
0.989786
0.988121
0.985613
0.983117
0.980873
0.978943
0.977332
0.976033
0.975028
0.974302
0.973836
0.973614
0.973618
0.973837
0.974261
0.974886
0.975712
0.976747
0.978005
0.979505
0.981264
0.983289
0.985519
0.987654
0.98857
0.984314
0.961517
0.878475
0.643829
0.287041
0.0925005
0.028151
0.00927836
0.00331735
0.000970492
5.50734e-05
1e-05
1e-05
1e-05
1e-05
1e-05
1e-05
1e-05
1e-05
1e-05
1e-05
1e-05
1e-05
1e-05
1e-05
1e-05
1e-05
1e-05
1e-05
1e-05
1e-05
1e-05
1e-05
1e-05
1e-05
1e-05
1e-05
1e-05
1e-05
1e-05
1e-05
1e-05
1e-05
1e-05
1e-05
1e-05
1e-05
1e-05
1e-05
1e-05
1e-05
1e-05
1e-05
1e-05
1e-05
1e-05
1e-05
1e-05
1e-05
1e-05
1e-05
1e-05
1e-05
1e-05
1.59136e-05
0.00108726
0.0050054
0.0161627
0.0529966
0.174862
0.481574
0.804387
0.940215
0.979994
0.988733
0.988647
0.986322
0.98363
0.981093
0.978849
0.976928
0.975327
0.974035
0.973035
0.972312
0.971847
0.971624
0.971627
0.971842
0.972261
0.972878
0.973693
0.974714
0.975951
0.977424
0.979153
0.981153
0.9834
0.98572
0.987404
0.98588
0.972157
0.916503
0.739375
0.383939
0.12929
0.0384304
0.0119152
0.00407235
0.00128153
0.000121863
1e-05
1e-05
1e-05
1e-05
1e-05
1e-05
1e-05
1e-05
1e-05
1e-05
1e-05
1e-05
1e-05
1e-05
1e-05
1e-05
1e-05
1e-05
1e-05
1e-05
1e-05
1e-05
1e-05
1e-05
1e-05
1e-05
1e-05
1e-05
1e-05
1e-05
1e-05
1e-05
1e-05
1e-05
1e-05
1e-05
1e-05
1e-05
1e-05
1e-05
1e-05
1e-05
1e-05
1e-05
1e-05
1e-05
1e-05
1e-05
1e-05
1e-05
1e-05
1e-05
1e-05
4.70557e-05
0.00165256
0.00647761
0.0209174
0.0700412
0.229371
0.582088
0.857479
0.957169
0.983915
0.988613
0.987328
0.984655
0.981867
0.979307
0.977059
0.975138
0.973536
0.972241
0.971239
0.970512
0.970044
0.969817
0.969815
0.970026
0.970438
0.971047
0.97185
0.972853
0.974067
0.975509
0.977199
0.979155
0.981369
0.983734
0.985776
0.985723
0.977248
0.938651
0.805265
0.482521
0.173017
0.0509506
0.0149303
0.00473362
0.00146606
0.000184503
1e-05
1e-05
1e-05
1e-05
1e-05
1e-05
1e-05
1e-05
1e-05
1e-05
1e-05
1e-05
1e-05
1e-05
1e-05
1e-05
1e-05
1e-05
1e-05
1e-05
1e-05
1e-05
1e-05
1e-05
1e-05
1e-05
1e-05
1e-05
1e-05
1e-05
1e-05
1e-05
1e-05
1e-05
1e-05
1e-05
1e-05
1e-05
1e-05
1e-05
1e-05
1e-05
1e-05
1e-05
1e-05
1e-05
1e-05
1e-05
1e-05
1e-05
1e-05
1e-05
1e-05
0.000120236
0.00222493
0.00804049
0.0260225
0.0880759
0.283358
0.658922
0.890857
0.966874
0.98574
0.988072
0.986091
0.983211
0.980357
0.97777
0.975507
0.973572
0.971958
0.970651
0.969637
0.968899
0.968421
0.968185
0.968176
0.968378
0.968782
0.969379
0.970168
0.971152
0.972339
0.973744
0.975386
0.977281
0.979432
0.981765
0.983948
0.9847
0.979392
0.9518
0.850451
0.572742
0.222661
0.0659272
0.0184261
0.00531052
0.00150212
0.000200217
1e-05
1e-05
1e-05
1e-05
1e-05
1e-05
1e-05
1e-05
1e-05
1e-05
1e-05
1e-05
1e-05
1e-05
1e-05
1e-05
1e-05
1e-05
1e-05
1e-05
1e-05
1e-05
1e-05
1e-05
1e-05
1e-05
1e-05
1e-05
1e-05
1e-05
1e-05
1e-05
1e-05
1e-05
1e-05
1e-05
1e-05
1e-05
1e-05
1e-05
1e-05
1e-05
1e-05
1e-05
1e-05
1e-05
1e-05
1e-05
1e-05
1e-05
1e-05
1e-05
1e-05
0.000266348
0.00279667
0.00959023
0.0310724
0.105581
0.332252
0.712361
0.911525
0.9725
0.986561
0.987461
0.985048
0.982024
0.979109
0.976485
0.974192
0.972231
0.970592
0.969261
0.968226
0.967469
0.966974
0.966724
0.966702
0.966893
0.967284
0.967867
0.968639
0.969599
0.970754
0.972115
0.9737
0.975522
0.977585
0.97984
0.982038
0.983225
0.979916
0.959742
0.881884
0.649177
0.278791
0.084355
0.0227786
0.00589917
0.00139192
0.000146942
1e-05
1e-05
1e-05
1.00611e-05
2.12711e-05
4.70135e-05
8.09828e-05
0.000119024
0.000160645
0.000206383
0.000254004
0.000295664
0.000318517
0.0003103
0.000267018
0.0001979
0.000123143
6.23874e-05
2.45635e-05
1.01873e-05
1e-05
1e-05
1e-05
1e-05
1e-05
1e-05
1e-05
1e-05
1e-05
1e-05
1e-05
1e-05
1e-05
1e-05
1e-05
1e-05
1e-05
1e-05
1e-05
1e-05
1e-05
1e-05
1e-05
1e-05
1e-05
1e-05
1e-05
1e-05
1e-05
1e-05
1e-05
1e-05