# vtk DataFile Version 2.0
time_10.vtk
ASCII
DATASET STRUCTURED_GRID
DIMENSIONS 100 100 1
POINTS 10000 float
-0.4 -0.4 0
-0.4 0 0
-0.4 0.4 0
-0.4 0.8 0
-0.4 1.2 0
-0.4 1.6 0
-0.4 2 0
-0.4 2.4 0
-0.4 2.8 0
-0.4 3.2 0
-0.4 3.6 0
-0.4 4 0
-0.4 4.4 0
-0.4 4.8 0
-0.4 5.2 0
-0.4 5.6 0
-0.4 6 0
-0.4 6.4 0
-0.4 6.8 0
-0.4 7.2 0
-0.4 7.6 0
-0.4 8 0
-0.4 8.4 0
-0.4 8.8 0
-0.4 9.2 0
-0.4 9.6 0
-0.4 10 0
-0.4 10.4 0
-0.4 10.8 0
-0.4 11.2 0
-0.4 11.6 0
-0.4 12 0
-0.4 12.4 0
-0.4 12.8 0
-0.4 13.2 0
-0.4 13.6 0
-0.4 14 0
-0.4 14.4 0
-0.4 14.8 0
-0.4 15.2 0
-0.4 15.6 0
-0.4 16 0
-0.4 16.4 0
-0.4 16.8 0
-0.4 17.2 0
-0.4 17.6 0
-0.4 18 0
-0.4 18.4 0
-0.4 18.8 0
-0.4 19.2 0
-0.4 19.6 0
-0.4 20 0
-0.4 20.4 0
-0.4 20.8 0
-0.4 21.2 0
-0.4 21.6 0
-0.4 22 0
-0.4 22.4 0
-0.4 22.8 0
-0.4 23.2 0
-0.4 23.6 0
-0.4 24 0
-0.4 24.4 0
-0.4 24.8 0
-0.4 25.2 0
-0.4 25.6 0
-0.4 26 0
-0.4 26.4 0
-0.4 26.8 0
-0.4 27.2 0
-0.4 27.6 0
-0.4 28 0
-0.4 28.4 0
-0.4 28.8 0
-0.4 29.2 0
-0.4 29.6 0
-0.4 30 0
-0.4 30.4 0
-0.4 30.8 0
-0.4 31.2 0
-0.4 31.6 0
-0.4 32 0
-0.4 32.4 0
-0.4 32.8 0
-0.4 33.2 0
-0.4 33.6 0
-0.4 34 0
-0.4 34.4 0
-0.4 34.8 0
-0.4 35.2 0
-0.4 35.6 0
-0.4 36 0
-0.4 36.4 0
-0.4 36.8 0
-0.4 37.2 0
-0.4 37.6 0
-0.4 38 0
-0.4 38.4 0
-0.4 38.8 0
-0.4 39.2 0
0 -0.4 0
0 0 0
0 0.4 0
0 0.8 0
0 1.2 0
0 1.6 0
0 2 0
0 2.4 0
0 2.8 0
0 3.2 0
0 3.6 0
0 4 0
0 4.4 0
0 4.8 0
0 5.2 0
0 5.6 0
0 6 0
0 6.4 0
0 6.8 0
0 7.2 0
0 7.6 0
0 8 0
0 8.4 0
0 8.8 0
0 9.2 0
0 9.6 0
0 10 0
0 10.4 0
0 10.8 0
0 11.2 0
0 11.6 0
0 12 0
0 12.4 0
0 12.8 0
0 13.2 0
0 13.6 0
0 14 0
0 14.4 0
0 14.8 0
0 15.2 0
0 15.6 0
0 16 0
0 16.4 0
0 16.8 0
0 17.2 0
0 17.6 0
0 18 0
0 18.4 0
0 18.8 0
0 19.2 0
0 19.6 0
0 20 0
0 20.4 0
0 20.8 0
0 21.2 0
0 21.6 0
0 22 0
0 22.4 0
0 22.8 0
0 23.2 0
0 23.6 0
0 24 0
0 24.4 0
0 24.8 0
0 25.2 0
0 25.6 0
0 26 0
0 26.4 0
0 26.8 0
0 27.2 0
0 27.6 0
0 28 0
0 28.4 0
0 28.8 0
0 29.2 0
0 29.6 0
0 30 0
0 30.4 0
0 30.8 0
0 31.2 0
0 31.6 0
0 32 0
0 32.4 0
0 32.8 0
0 33.2 0
0 33.6 0
0 34 0
0 34.4 0
0 34.8 0
0 35.2 0
0 35.6 0
0 36 0
0 36.4 0
0 36.8 0
0 37.2 0
0 37.6 0
0 38 0
0 38.4 0
0 38.8 0
0 39.2 0
0.4 -0.4 0
0.4 0 0
0.4 0.4 0
0.4 0.8 0
0.4 1.2 0
0.4 1.6 0
0.4 2 0
0.4 2.4 0
0.4 2.8 0
0.4 3.2 0
0.4 3.6 0
0.4 4 0
0.4 4.4 0
0.4 4.8 0
0.4 5.2 0
0.4 5.6 0
0.4 6 0
0.4 6.4 0
0.4 6.8 0
0.4 7.2 0
0.4 7.6 0
0.4 8 0
0.4 8.4 0
0.4 8.8 0
0.4 9.2 0
0.4 9.6 0
0.4 10 0
0.4 10.4 0
0.4 10.8 0
0.4 11.2 0
0.4 11.6 0
0.4 12 0
0.4 12.4 0
0.4 12.8 0
0.4 13.2 0
0.4 13.6 0
0.4 14 0
0.4 14.4 0
0.4 14.8 0
0.4 15.2 0
0.4 15.6 0
0.4 16 0
0.4 16.4 0
0.4 16.8 0
0.4 17.2 0
0.4 17.6 0
0.4 18 0
0.4 18.4 0
0.4 18.8 0
0.4 19.2 0
0.4 19.6 0
0.4 20 0
0.4 20.4 0
0.4 20.8 0
0.4 21.2 0
0.4 21.6 0
0.4 22 0
0.4 22.4 0
0.4 22.8 0
0.4 23.2 0
0.4 23.6 0
0.4 24 0
0.4 24.4 0
0.4 24.8 0
0.4 25.2 0
0.4 25.6 0
0.4 26 0
0.4 26.4 0
0.4 26.8 0
0.4 27.2 0
0.4 27.6 0
0.4 28 0
0.4 28.4 0
0.4 28.8 0
0.4 29.2 0
0.4 29.6 0
0.4 30 0
0.4 30.4 0
0.4 30.8 0
0.4 31.2 0
0.4 31.6 0
0.4 32 0
0.4 32.4 0
0.4 32.8 0
0.4 33.2 0
0.4 33.6 0
0.4 34 0
0.4 34.4 0
0.4 34.8 0
0.4 35.2 0
0.4 35.6 0
0.4 36 0
0.4 36.4 0
0.4 36.8 0
0.4 37.2 0
0.4 37.6 0
0.4 38 0
0.4 38.4 0
0.4 38.8 0
0.4 39.2 0
0.8 -0.4 0
0.8 0 0
0.8 0.4 0
0.8 0.8 0
0.8 1.2 0
0.8 1.6 0
0.8 2 0
0.8 2.4 0
0.8 2.8 0
0.8 3.2 0
0.8 3.6 0
0.8 4 0
0.8 4.4 0
0.8 4.8 0
0.8 5.2 0
0.8 5.6 0
0.8 6 0
0.8 6.4 0
0.8 6.8 0
0.8 7.2 0
0.8 7.6 0
0.8 8 0
0.8 8.4 0
0.8 8.8 0
0.8 9.2 0
0.8 9.6 0
0.8 10 0
0.8 10.4 0
0.8 10.8 0
0.8 11.2 0
0.8 11.6 0
0.8 12 0
0.8 12.4 0
0.8 12.8 0
0.8 13.2 0
0.8 13.6 0
0.8 14 0
0.8 14.4 0
0.8 14.8 0
0.8 15.2 0
0.8 15.6 0
0.8 16 0
0.8 16.4 0
0.8 16.8 0
0.8 17.2 0
0.8 17.6 0
0.8 18 0
0.8 18.4 0
0.8 18.8 0
0.8 19.2 0
0.8 19.6 0
0.8 20 0
0.8 20.4 0
0.8 20.8 0
0.8 21.2 0
0.8 21.6 0
0.8 22 0
0.8 22.4 0
0.8 22.8 0
0.8 23.2 0
0.8 23.6 0
0.8 24 0
0.8 24.4 0
0.8 24.8 0
0.8 25.2 0
0.8 25.6 0
0.8 26 0
0.8 26.4 0
0.8 26.8 0
0.8 27.2 0
0.8 27.6 0
0.8 28 0
0.8 28.4 0
0.8 28.8 0
0.8 29.2 0
0.8 29.6 0
0.8 30 0
0.8 30.4 0
0.8 30.8 0
0.8 31.2 0
0.8 31.6 0
0.8 32 0
0.8 32.4 0
0.8 32.8 0
0.8 33.2 0
0.8 33.6 0
0.8 34 0
0.8 34.4 0
0.8 34.8 0
0.8 35.2 0
0.8 35.6 0
0.8 36 0
0.8 36.4 0
0.8 36.8 0
0.8 37.2 0
0.8 37.6 0
0.8 38 0
0.8 38.4 0
0.8 38.8 0
0.8 39.2 0
1.2 -0.4 0
1.2 0 0
1.2 0.4 0
1.2 0.8 0
1.2 1.2 0
1.2 1.6 0
1.2 2 0
1.2 2.4 0
1.2 2.8 0
1.2 3.2 0
1.2 3.6 0
1.2 4 0
1.2 4.4 0
1.2 4.8 0
1.2 5.2 0
1.2 5.6 0
1.2 6 0
1.2 6.4 0
1.2 6.8 0
1.2 7.2 0
1.2 7.6 0
1.2 8 0
1.2 8.4 0
1.2 8.8 0
1.2 9.2 0
1.2 9.6 0
1.2 10 0
1.2 10.4 0
1.2 10.8 0
1.2 11.2 0
1.2 11.6 0
1.2 12 0
1.2 12.4 0
1.2 12.8 0
1.2 13.2 0
1.2 13.6 0
1.2 14 0
1.2 14.4 0
1.2 14.8 0
1.2 15.2 0
1.2 15.6 0
1.2 16 0
1.2 16.4 0
1.2 16.8 0
1.2 17.2 0
1.2 17.6 0
1.2 18 0
1.2 18.4 0
1.2 18.8 0
1.2 19.2 0
1.2 19.6 0
1.2 20 0
1.2 20.4 0
1.2 20.8 0
1.2 21.2 0
1.2 21.6 0
1.2 22 0
1.2 22.4 0
1.2 22.8 0
1.2 23.2 0
1.2 23.6 0
1.2 24 0
1.2 24.4 0
1.2 24.8 0
1.2 25.2 0
1.2 25.6 0
1.2 26 0
1.2 26.4 0
1.2 26.8 0
1.2 27.2 0
1.2 27.6 0
1.2 28 0
1.2 28.4 0
1.2 28.8 0
1.2 29.2 0
1.2 29.6 0
1.2 30 0
1.2 30.4 0
1.2 30.8 0
1.2 31.2 0
1.2 31.6 0
1.2 32 0
1.2 32.4 0
1.2 32.8 0
1.2 33.2 0
1.2 33.6 0
1.2 34 0
1.2 34.4 0
1.2 34.8 0
1.2 35.2 0
1.2 35.6 0
1.2 36 0
1.2 36.4 0
1.2 36.8 0
1.2 37.2 0
1.2 37.6 0
1.2 38 0
1.2 38.4 0
1.2 38.8 0
1.2 39.2 0
1.6 -0.4 0
1.6 0 0
1.6 0.4 0
1.6 0.8 0
1.6 1.2 0
1.6 1.6 0
1.6 2 0
1.6 2.4 0
1.6 2.8 0
1.6 3.2 0
1.6 3.6 0
1.6 4 0
1.6 4.4 0
1.6 4.8 0
1.6 5.2 0
1.6 5.6 0
1.6 6 0
1.6 6.4 0
1.6 6.8 0
1.6 7.2 0
1.6 7.6 0
1.6 8 0
1.6 8.4 0
1.6 8.8 0
1.6 9.2 0
1.6 9.6 0
1.6 10 0
1.6 10.4 0
1.6 10.8 0
1.6 11.2 0
1.6 11.6 0
1.6 12 0
1.6 12.4 0
1.6 12.8 0
1.6 13.2 0
1.6 13.6 0
1.6 14 0
1.6 14.4 0
1.6 14.8 0
1.6 15.2 0
1.6 15.6 0
1.6 16 0
1.6 16.4 0
1.6 16.8 0
1.6 17.2 0
1.6 17.6 0
1.6 18 0
1.6 18.4 0
1.6 18.8 0
1.6 19.2 0
1.6 19.6 0
1.6 20 0
1.6 20.4 0
1.6 20.8 0
1.6 21.2 0
1.6 21.6 0
1.6 22 0
1.6 22.4 0
1.6 22.8 0
1.6 23.2 0
1.6 23.6 0
1.6 24 0
1.6 24.4 0
1.6 24.8 0
1.6 25.2 0
1.6 25.6 0
1.6 26 0
1.6 26.4 0
1.6 26.8 0
1.6 27.2 0
1.6 27.6 0
1.6 28 0
1.6 28.4 0
1.6 28.8 0
1.6 29.2 0
1.6 29.6 0
1.6 30 0
1.6 30.4 0
1.6 30.8 0
1.6 31.2 0
1.6 31.6 0
1.6 32 0
1.6 32.4 0
1.6 32.8 0
1.6 33.2 0
1.6 33.6 0
1.6 34 0
1.6 34.4 0
1.6 34.8 0
1.6 35.2 0
1.6 35.6 0
1.6 36 0
1.6 36.4 0
1.6 36.8 0
1.6 37.2 0
1.6 37.6 0
1.6 38 0
1.6 38.4 0
1.6 38.8 0
1.6 39.2 0
2 -0.4 0
2 0 0
2 0.4 0
2 0.8 0
2 1.2 0
2 1.6 0
2 2 0
2 2.4 0
2 2.8 0
2 3.2 0
2 3.6 0
2 4 0
2 4.4 0
2 4.8 0
2 5.2 0
2 5.6 0
2 6 0
2 6.4 0
2 6.8 0
2 7.2 0
2 7.6 0
2 8 0
2 8.4 0
2 8.8 0
2 9.2 0
2 9.6 0
2 10 0
2 10.4 0
2 10.8 0
2 11.2 0
2 11.6 0
2 12 0
2 12.4 0
2 12.8 0
2 13.2 0
2 13.6 0
2 14 0
2 14.4 0
2 14.8 0
2 15.2 0
2 15.6 0
2 16 0
2 16.4 0
2 16.8 0
2 17.2 0
2 17.6 0
2 18 0
2 18.4 0
2 18.8 0
2 19.2 0
2 19.6 0
2 20 0
2 20.4 0
2 20.8 0
2 21.2 0
2 21.6 0
2 22 0
2 22.4 0
2 22.8 0
2 23.2 0
2 23.6 0
2 24 0
2 24.4 0
2 24.8 0
2 25.2 0
2 25.6 0
2 26 0
2 26.4 0
2 26.8 0
2 27.2 0
2 27.6 0
2 28 0
2 28.4 0
2 28.8 0
2 29.2 0
2 29.6 0
2 30 0
2 30.4 0
2 30.8 0
2 31.2 0
2 31.6 0
2 32 0
2 32.4 0
2 32.8 0
2 33.2 0
2 33.6 0
2 34 0
2 34.4 0
2 34.8 0
2 35.2 0
2 35.6 0
2 36 0
2 36.4 0
2 36.8 0
2 37.2 0
2 37.6 0
2 38 0
2 38.4 0
2 38.8 0
2 39.2 0
2.4 -0.4 0
2.4 0 0
2.4 0.4 0
2.4 0.8 0
2.4 1.2 0
2.4 1.6 0
2.4 2 0
2.4 2.4 0
2.4 2.8 0
2.4 3.2 0
2.4 3.6 0
2.4 4 0
2.4 4.4 0
2.4 4.8 0
2.4 5.2 0
2.4 5.6 0
2.4 6 0
2.4 6.4 0
2.4 6.8 0
2.4 7.2 0
2.4 7.6 0
2.4 8 0
2.4 8.4 0
2.4 8.8 0
2.4 9.2 0
2.4 9.6 0
2.4 10 0
2.4 10.4 0
2.4 10.8 0
2.4 11.2 0
2.4 11.6 0
2.4 12 0
2.4 12.4 0
2.4 12.8 0
2.4 13.2 0
2.4 13.6 0
2.4 14 0
2.4 14.4 0
2.4 14.8 0
2.4 15.2 0
2.4 15.6 0
2.4 16 0
2.4 16.4 0
2.4 16.8 0
2.4 17.2 0
2.4 17.6 0
2.4 18 0
2.4 18.4 0
2.4 18.8 0
2.4 19.2 0
2.4 19.6 0
2.4 20 0
2.4 20.4 0
2.4 20.8 0
2.4 21.2 0
2.4 21.6 0
2.4 22 0
2.4 22.4 0
2.4 22.8 0
2.4 23.2 0
2.4 23.6 0
2.4 24 0
2.4 24.4 0
2.4 24.8 0
2.4 25.2 0
2.4 25.6 0
2.4 26 0
2.4 26.4 0
2.4 26.8 0
2.4 27.2 0
2.4 27.6 0
2.4 28 0
2.4 28.4 0
2.4 28.8 0
2.4 29.2 0
2.4 29.6 0
2.4 30 0
2.4 30.4 0
2.4 30.8 0
2.4 31.2 0
2.4 31.6 0
2.4 32 0
2.4 32.4 0
2.4 32.8 0
2.4 33.2 0
2.4 33.6 0
2.4 34 0
2.4 34.4 0
2.4 34.8 0
2.4 35.2 0
2.4 35.6 0
2.4 36 0
2.4 36.4 0
2.4 36.8 0
2.4 37.2 0
2.4 37.6 0
2.4 38 0
2.4 38.4 0
2.4 38.8 0
2.4 39.2 0
2.8 -0.4 0
2.8 0 0
2.8 0.4 0
2.8 0.8 0
2.8 1.2 0
2.8 1.6 0
2.8 2 0
2.8 2.4 0
2.8 2.8 0
2.8 3.2 0
2.8 3.6 0
2.8 4 0
2.8 4.4 0
2.8 4.8 0
2.8 5.2 0
2.8 5.6 0
2.8 6 0
2.8 6.4 0
2.8 6.8 0
2.8 7.2 0
2.8 7.6 0
2.8 8 0
2.8 8.4 0
2.8 8.8 0
2.8 9.2 0
2.8 9.6 0
2.8 10 0
2.8 10.4 0
2.8 10.8 0
2.8 11.2 0
2.8 11.6 0
2.8 12 0
2.8 12.4 0
2.8 12.8 0
2.8 13.2 0
2.8 13.6 0
2.8 14 0
2.8 14.4 0
2.8 14.8 0
2.8 15.2 0
2.8 15.6 0
2.8 16 0
2.8 16.4 0
2.8 16.8 0
2.8 17.2 0
2.8 17.6 0
2.8 18 0
2.8 18.4 0
2.8 18.8 0
2.8 19.2 0
2.8 19.6 0
2.8 20 0
2.8 20.4 0
2.8 20.8 0
2.8 21.2 0
2.8 21.6 0
2.8 22 0
2.8 22.4 0
2.8 22.8 0
2.8 23.2 0
2.8 23.6 0
2.8 24 0
2.8 24.4 0
2.8 24.8 0
2.8 25.2 0
2.8 25.6 0
2.8 26 0
2.8 26.4 0
2.8 26.8 0
2.8 27.2 0
2.8 27.6 0
2.8 28 0
2.8 28.4 0
2.8 28.8 0
2.8 29.2 0
2.8 29.6 0
2.8 30 0
2.8 30.4 0
2.8 30.8 0
2.8 31.2 0
2.8 31.6 0
2.8 32 0
2.8 32.4 0
2.8 32.8 0
2.8 33.2 0
2.8 33.6 0
2.8 34 0
2.8 34.4 0
2.8 34.8 0
2.8 35.2 0
2.8 35.6 0
2.8 36 0
2.8 36.4 0
2.8 36.8 0
2.8 37.2 0
2.8 37.6 0
2.8 38 0
2.8 38.4 0
2.8 38.8 0
2.8 39.2 0
3.2 -0.4 0
3.2 0 0
3.2 0.4 0
3.2 0.8 0
3.2 1.2 0
3.2 1.6 0
3.2 2 0
3.2 2.4 0
3.2 2.8 0
3.2 3.2 0
3.2 3.6 0
3.2 4 0
3.2 4.4 0
3.2 4.8 0
3.2 5.2 0
3.2 5.6 0
3.2 6 0
3.2 6.4 0
3.2 6.8 0
3.2 7.2 0
3.2 7.6 0
3.2 8 0
3.2 8.4 0
3.2 8.8 0
3.2 9.2 0
3.2 9.6 0
3.2 10 0
3.2 10.4 0
3.2 10.8 0
3.2 11.2 0
3.2 11.6 0
3.2 12 0
3.2 12.4 0
3.2 12.8 0
3.2 13.2 0
3.2 13.6 0
3.2 14 0
3.2 14.4 0
3.2 14.8 0
3.2 15.2 0
3.2 15.6 0
3.2 16 0
3.2 16.4 0
3.2 16.8 0
3.2 17.2 0
3.2 17.6 0
3.2 18 0
3.2 18.4 0
3.2 18.8 0
3.2 19.2 0
3.2 19.6 0
3.2 20 0
3.2 20.4 0
3.2 20.8 0
3.2 21.2 0
3.2 21.6 0
3.2 22 0
3.2 22.4 0
3.2 22.8 0
3.2 23.2 0
3.2 23.6 0
3.2 24 0
3.2 24.4 0
3.2 24.8 0
3.2 25.2 0
3.2 25.6 0
3.2 26 0
3.2 26.4 0
3.2 26.8 0
3.2 27.2 0
3.2 27.6 0
3.2 28 0
3.2 28.4 0
3.2 28.8 0
3.2 29.2 0
3.2 29.6 0
3.2 30 0
3.2 30.4 0
3.2 30.8 0
3.2 31.2 0
3.2 31.6 0
3.2 32 0
3.2 32.4 0
3.2 32.8 0
3.2 33.2 0
[...]
POINT_DATA 10000
SCALARS CON float 1
LOOKUP_TABLE default
1e-05
1e-05
1e-05
1e-05
1e-05
1e-05
1e-05
1e-05
1e-05
1e-05
1e-05
1e-05
1e-05
1e-05
1e-05
1e-05
1e-05
1e-05
1e-05
1e-05
1e-05
1e-05
1e-05
1e-05
1e-05
1e-05
1e-05
1e-05
1e-05
1e-05
1e-05
1e-05
1e-05
1e-05
1e-05
1e-05
1e-05
1e-05
1e-05
1e-05
1e-05
1e-05
1e-05
1e-05
1e-05
1e-05
1e-05
1e-05
1e-05
1e-05
1e-05
1e-05
1e-05
1e-05
1e-05
1e-05
1e-05
1e-05
1e-05
1e-05
1e-05
1e-05
1e-05
1e-05
1e-05
1e-05
1e-05
1e-05
1e-05
1e-05
1e-05
1e-05
1e-05
1e-05
1e-05
1e-05
1e-05
1e-05
1e-05
1e-05
1e-05
1e-05
1e-05
1e-05
1e-05
1e-05
1e-05
1e-05
1e-05
1e-05
1e-05
1e-05
1e-05
1e-05
1e-05
1e-05
1e-05
1e-05
1e-05
1e-05
1e-05
1e-05
1e-05
1e-05
1e-05
1e-05
1e-05
1e-05
1e-05
1e-05
1e-05
1e-05
1e-05
1e-05
1e-05
1e-05
1e-05
1e-05
1e-05
1e-05
1e-05
1e-05
1e-05
1e-05
1e-05
1e-05
1e-05
1e-05
1e-05
1e-05
1e-05
1e-05
1e-05
1e-05
1e-05
1e-05
1e-05
1e-05
1e-05
1e-05
1e-05
1e-05
1e-05
1e-05
1e-05
1e-05
1e-05
1e-05
1e-05
1e-05
1e-05
1e-05
1e-05
1e-05
1e-05
1e-05
1e-05
1e-05
1e-05
1e-05
1e-05
1e-05
1e-05
1e-05
1e-05
1e-05
1e-05
1e-05
1e-05
1e-05
1e-05
1e-05
1e-05
1e-05
1e-05
1e-05
1e-05
1e-05
1e-05
1e-05
1e-05
1e-05
1e-05
1e-05
1e-05
1e-05
1e-05
1e-05
1e-05
1e-05
1e-05
1e-05
1e-05
1e-05
1e-05
1e-05
1e-05
1e-05
1e-05
1e-05
1e-05
1e-05
1e-05
1e-05
1e-05
1e-05
1e-05
1e-05
1e-05
1e-05
1e-05
1e-05
1e-05
1e-05
1e-05
1e-05
1e-05
1e-05
1e-05
1e-05
1e-05
1e-05
1e-05
1e-05
1e-05
1e-05
1e-05
1e-05
1e-05
1e-05
1e-05
1e-05
1e-05
1e-05
1e-05
1e-05
1e-05
1e-05
1e-05
1e-05
1e-05
1e-05
1e-05
1e-05
1e-05
1e-05
1e-05
1e-05
1e-05
1e-05
1e-05
1e-05
1e-05
1e-05
1e-05
1e-05
1e-05
1e-05
1e-05
1e-05
1e-05
1e-05
1e-05
1e-05
1e-05
1e-05
1e-05
1e-05
1e-05
1e-05
1e-05
1e-05
1e-05
1e-05
1e-05
1e-05
1e-05
1e-05
1e-05
1e-05
1e-05
1e-05
1e-05
1e-05
1e-05
1e-05
1e-05
1e-05
1e-05
1e-05
1e-05
1e-05
1e-05
1e-05
1e-05
1e-05
1e-05
1e-05
1e-05
1e-05
1e-05
1e-05
1e-05
1e-05
1e-05
1e-05
1e-05
1e-05
1e-05
1e-05
1e-05
1e-05
1e-05
1e-05
1e-05
1e-05
1e-05
1e-05
1e-05
1e-05
1e-05
1e-05
1e-05
1e-05
1e-05
1e-05
1e-05
1e-05
1e-05
1e-05
1.03098e-05
1.09321e-05
1.12862e-05
1.11022e-05
1.05146e-05
1.002e-05
1e-05
1e-05
1e-05
1e-05
1e-05
1e-05
1e-05
1e-05
1e-05
1e-05
1e-05
1e-05
1e-05
1e-05
1e-05
1e-05
1e-05
1e-05
1e-05
1e-05
1e-05
1e-05
1e-05
1e-05
1e-05
1e-05
1e-05
1e-05
1e-05
1e-05
1e-05
1e-05
1e-05
1e-05
1e-05
1e-05
1e-05
1e-05
1e-05
1e-05
1e-05
1e-05
1e-05
1e-05
1e-05
1e-05
1e-05
1e-05
1e-05
1e-05
1e-05
1e-05
1e-05
1e-05
1e-05
1e-05
1e-05
1e-05
1e-05
1e-05
1e-05
1e-05
1e-05
1e-05
1e-05
1e-05
1e-05
1e-05
1e-05
1e-05
1e-05
1e-05
1e-05
1e-05
1e-05
1e-05
1e-05
1e-05
1e-05
1e-05
1e-05
1e-05
1e-05
1e-05
1e-05
1e-05
1e-05
1e-05
1.01378e-05
1.46328e-05
2.56739e-05
4.31858e-05
6.54804e-05
8.93779e-05
0.000110913
0.000126353
0.000132905
0.00012929
0.00011598
9.51801e-05
7.04676e-05
4.61959e-05
2.64911e-05
1.41308e-05
1e-05
1e-05
1e-05
1e-05
1e-05
1e-05
1e-05
1e-05
1e-05
1e-05
1e-05
1e-05
1e-05
1e-05
1e-05
1e-05
1e-05
1e-05
1e-05
1e-05
1e-05
1e-05
1e-05
1e-05
1e-05
1e-05
1e-05
1e-05
1e-05
1e-05
1e-05
1e-05
1e-05
1e-05
1e-05
1e-05
1e-05
1e-05
1e-05
1e-05
1e-05
1e-05
1e-05
1e-05
1e-05
1e-05
1e-05
1e-05
1e-05
1e-05
1e-05
1e-05
1e-05
1e-05
1e-05
1e-05
1e-05
1e-05
1e-05
1e-05
1e-05
1e-05
1e-05
1e-05
1e-05
1e-05
1e-05
1e-05
1e-05
1e-05
1e-05
1e-05
1e-05
1e-05
1e-05
1e-05
1e-05
1e-05
1e-05
1e-05
1e-05
1.35863e-05
2.89268e-05
6.05029e-05
0.000111477
0.000181507
0.000265633
0.000355261
0.000441657
0.000517554
0.000577271
0.000616522
0.00063233
0.000623067
0.00058858
0.000530347
0.000451708
0.00035827
0.00025851
0.000164093
8.79168e-05
3.78404e-05
1.39468e-05
1e-05
1e-05
1e-05
1e-05
1e-05
1e-05
1e-05
1e-05
1e-05
1e-05
1e-05
1e-05
1e-05
1e-05
1e-05
1e-05
1e-05
1e-05
1e-05
1e-05
1e-05
1e-05
1e-05
1e-05
1e-05
1e-05
1e-05
1e-05
1e-05
1e-05
1e-05
1e-05
1e-05
1e-05
1e-05
1e-05
1e-05
1e-05
1e-05
1e-05
1e-05
1e-05
1e-05
1e-05
1e-05
1e-05
1e-05
1e-05
1e-05
1e-05
1e-05
1e-05
1e-05
1e-05
1e-05
1e-05
1e-05
1e-05
1e-05
1e-05
1e-05
1e-05
1e-05
1e-05
1e-05
1e-05
1e-05
1e-05
1e-05
1e-05
1e-05
1e-05
1e-05
1e-05
1e-05
1.52473e-05
3.82641e-05
8.73927e-05
0.000169159
0.000283506
0.000421794
0.000574352
0.000733566
0.000892562
0.00104384
0.00117996
0.00129448
0.00138219
0.00143898
0.00146168
0.00144807
0.00139703
0.00130888
0.00118579
0.00103224
0.000855474
0.000665602
0.000474981
0.000297886
0.000152682
5.85939e-05
1.64867e-05
1e-05
1e-05
1e-05
1e-05
1e-05
1e-05
1e-05
1e-05
1e-05
1e-05
1e-05
1e-05
1e-05
1e-05
1e-05
1e-05
1e-05
1e-05
1e-05
1e-05
1e-05
1e-05
1e-05
1e-05
1e-05
1e-05
1e-05
1e-05
1e-05
1e-05
1e-05
1e-05
1e-05
1e-05
1e-05
1e-05
1e-05
1e-05
1e-05
1e-05
1e-05
1e-05
1e-05
1e-05
1e-05
1e-05
1e-05
1e-05
1e-05
1e-05
1e-05
1e-05
1e-05
1e-05
1e-05
1e-05
1e-05
1e-05
1e-05
1e-05
1e-05
1e-05
1e-05
1e-05
1e-05
1e-05
1e-05
1e-05
1e-05
1e-05
1.05861e-05
2.80735e-05
7.84339e-05
0.000173478
0.000313746
0.000488746
0.000689905
0.000910764
0.00114293
0.00137723
0.00160576
0.00182183
0.00201918
0.00219184
0.00233438
0.00244204
0.0025107
0.00253682
0.00251758
0.00245122
0.00233733
0.00217727
0.00197434
0.00173405
0.00146414
0.00117483
0.000879694
0.000597239
0.000349993
0.000160386
4.97258e-05
1.13832e-05
1e-05
1e-05
1e-05
1e-05
1e-05
1e-05
1e-05
1e-05
1e-05
1e-05
1e-05
1e-05
1e-05
1e-05
1e-05
1e-05
1e-05
1e-05
1e-05
1e-05
1e-05
1e-05
1e-05
1e-05
1e-05
1e-05
1e-05
1e-05
1e-05
1e-05
1e-05
1e-05
1e-05
1e-05
1e-05
1e-05
1e-05
1e-05
1e-05
1e-05
1e-05
1e-05
1e-05
1e-05
1e-05
1e-05
1e-05
1e-05
1e-05
1e-05
1e-05
1e-05
1e-05
1e-05
1e-05
1e-05
1e-05
1e-05
1e-05
1e-05
1e-05
1e-05
1e-05
1e-05
1e-05
1e-05
1.02525e-05
3.22936e-05
0.00010278
0.000236345
0.000425786
0.000658726
0.000925034
0.00121378
0.00151622
0.0018262
0.00213793
0.00244521
0.00274171
0.00302073
0.00327479
0.00349569
0.0036753
0.00380629
0.00388279
0.00390082
0.00385856
0.00375652
0.00359717
0.00338431
0.00312239
0.00281643
0.00247243
0.00209817
0.00170426
0.00130522
0.000919817
0.000571501
0.000289751
0.000102309
2.08229e-05
1e-05
1e-05
1e-05
1e-05
1e-05
1e-05
1e-05
1e-05
1e-05
1e-05
1e-05
1e-05
1e-05
1e-05
1e-05
1e-05
1e-05
1e-05
1e-05
1e-05
1e-05
1e-05
1e-05
1e-05
1e-05
1e-05
1e-05
1e-05
1e-05
1e-05
1e-05
1e-05
1e-05
1e-05
1e-05
1e-05
1e-05
1e-05
1e-05
1e-05
1e-05
1e-05
1e-05
1e-05
1e-05
1e-05
1e-05
1e-05
1e-05
1e-05
1e-05
1e-05
1e-05
1e-05
1e-05
1e-05
1e-05
1e-05
1e-05
1e-05
1e-05
1e-05
1e-05
1e-05
1.95651e-05
8.3025e-05
0.000227452
0.000449211
0.000731715
0.00105744
0.00141214
0.0017868
0.00217555
0.00257556
0.00298667
0.00340963
0.00384372
0.00428445
0.00472097
0.0051344
0.00549931
0.00578859
0.00597894
0.00605542
0.00601403
0.00586243
0.00561792
0.00530282
0.00493805
0.00453834
0.00411147
0.00366063
0.00318769
0.00269618
0.00219345
0.0016916
0.00120844
0.000768868
0.000404631
0.000151277
3.11e-05
1e-05
1e-05
1e-05
1e-05
1e-05
1e-05
1e-05
1e-05
1e-05
1e-05
1e-05
1e-05
1e-05
1e-05
1e-05
1e-05
1e-05
1e-05
1e-05
1e-05
1e-05
1e-05
1e-05
1e-05
1e-05
1e-05
1e-05
1e-05
1e-05
1e-05
1e-05
1e-05
1e-05
1e-05
1e-05
1e-05
1e-05
1e-05
1e-05
1e-05
1e-05
1e-05
1e-05
1e-05
1e-05
1e-05
1e-05
1e-05
1e-05
1e-05
1e-05
1e-05
1e-05
1e-05
1e-05
1e-05
1e-05
1e-05
1e-05
1e-05
1e-05
1e-05
3.42363e-05
0.000142056
0.000357049
0.000662285
0.00103266
0.00144663
0.00188964
0.00235416
0.0028404
0.00335638
0.00391814
0.00454838
0.0052715
0.00610488
0.00704777
0.00806868
0.00909587
0.0100242
0.0107394
0.0111464
0.0111909
0.0108718
0.010243
0.00940136
0.00846177
0.00752401
0.00664876
0.00585602
0.00513745
0.00447099
0.00383382
0.00321047
0.00259584
0.00199522
0.0014236
0.000905538
0.000475695
0.000175786
3.37679e-05
1e-05
1e-05
1e-05
1e-05
1e-05
1e-05
1e-05
1e-05
1e-05
1e-05
1e-05
1e-05
1e-05
1e-05
1e-05
1e-05
1e-05
1e-05
1e-05
1e-05
1e-05
1e-05
1e-05
1e-05
1e-05
1e-05
1e-05
1e-05
1e-05
1e-05
1e-05
1e-05
1e-05
1e-05
1e-05
1e-05
1e-05
1e-05
1e-05
1e-05
1e-05
1e-05
1e-05
1e-05
1e-05
1e-05
1e-05
1e-05
1e-05
1e-05
1e-05
1e-05
1e-05
1e-05
1e-05
1e-05
1e-05
1e-05
1e-05
1e-05
4.14955e-05
0.000180941
0.00045219
0.000829817
0.00128049
0.00177873
0.0023095
0.00286945
0.00346965
0.00414096
0.00494037
0.00595503
0.00729778
0.00908782
0.0114144
0.0142922
0.0176078
0.021071
0.0242421
0.0266454
0.0278926
0.0277727
0.0262994
0.0237171
0.0204546
0.0170172
0.0138354
0.0111553
0.00903988
0.00742794
0.00619523
0.00521016
0.00436793
0.00360141
0.0028772
0.00218697
0.00154027
0.000961199
0.000487694
0.000166821
2.70228e-05
1e-05
1e-05
1e-05
1e-05
1e-05
1e-05
1e-05
1e-05
1e-05
1e-05
1e-05
1e-05
1e-05
1e-05
1e-05
1e-05
1e-05
1e-05
1e-05
1e-05
1e-05
1e-05
1e-05
1e-05
1e-05
1e-05
1e-05
1e-05
1e-05
1e-05
1e-05
1e-05
1e-05
1e-05
1e-05
1e-05
1e-05
1e-05
1e-05
1e-05
1e-05
1e-05
1e-05
1e-05
1e-05
1e-05
1e-05
1e-05
1e-05
1e-05
1e-05
1e-05
1e-05
1e-05
1e-05
1e-05
1e-05
1e-05
3.51258e-05
0.000181844
0.000487365
0.000921147
0.00144179
0.00201839
0.00263496
0.00329342
0.00402199
0.00489217
0.00604504
0.00772196
0.0102848
0.0142001
0.019958
0.0279181
0.0381396
0.0501837
0.0628865
0.0744949
0.0831792
0.0875108
0.0867385
0.0809214
0.0709621
0.0584956
0.0455261
0.0338027
0.0243103
0.0172841
0.012459
0.00930044
0.0072406
0.00582339
0.00474607
0.00383725
0.00301502
0.00225092
0.00154785
0.000930088
0.000439909
0.000128984
1.63967e-05
1e-05
1e-05
1e-05
1e-05
1e-05
1e-05
1e-05
1e-05
1e-05
1e-05
1e-05
1e-05
1e-05
1e-05
1e-05
1e-05
1e-05
1e-05
1e-05
1e-05
1e-05
1e-05
1e-05
1e-05
1e-05
1e-05
1e-05
1e-05
1e-05
1e-05
1e-05
1e-05
1e-05
1e-05
1e-05
1e-05
1e-05
1e-05
1e-05
1e-05
1e-05
1e-05
1e-05
1e-05
1e-05
1e-05
1e-05
1e-05
1e-05
1e-05
1e-05
1e-05
1e-05
1e-05
1e-05
1e-05
2.04466e-05
0.000143942
0.000453079
0.000920657
0.00149649
0.00214216
0.00283869
0.00359265
0.00445301
0.00554938
0.00716259
0.00983223
0.0144823
0.0224993
0.0356463
0.055684
0.0836575
0.119305
0.160565
0.202873
0.240156
0.267039
0.279993
0.277345
0.259128
0.227287
0.186085
0.141847
0.100993
0.0676003
0.0430737
0.0268298
0.0169741
0.0113376
0.00814891
0.00623385
0.00492706
0.00389728
0.00299985
0.00218457
0.00144906
0.000819811
0.00034507
7.8254e-05
1.01646e-05
1e-05
1e-05
1e-05
1e-05
1e-05
1e-05
1e-05
1e-05
1e-05
1e-05
1e-05
1e-05
1e-05
1e-05
1e-05
1e-05
1e-05
1e-05
1e-05
1e-05
1e-05
1e-05
1e-05
1e-05
1e-05
1e-05
1e-05
1e-05
1e-05
1e-05
1e-05
1e-05
1e-05
1e-05
1e-05
1e-05
1e-05
1e-05
1e-05
1e-05
1e-05
1e-05
1e-05
1e-05
1e-05
1e-05
1e-05
1e-05
1e-05
1e-05
1e-05
1e-05
1e-05
1e-05
1.0411e-05
8.4149e-05
0.000357007
0.000827173
0.00143712
0.00213767
0.00290338
0.00374172
0.00471947
0.00602944
0.00813372
0.0120279
0.0196438
0.0342884
0.0607684
0.104582
0.169672
0.254889
0.353069
0.453149
0.541297
0.607092
0.647926
0.665699
0.662004
0.635915
0.584423
0.505974
0.406408
0.300096
0.202442
0.124719
0.0714211
0.0393317
0.0219315
0.0131228
0.00872077
0.00636178
0.00488437
0.00377689
0.00283678
0.00199849
0.00125886
0.000649848
0.000226654
3.51026e-05
1e-05
1e-05
1e-05
1e-05
1e-05
1e-05
1e-05
1e-05
1e-05
1e-05
1e-05
1e-05
1e-05
1e-05
1e-05
1e-05
1e-05
1e-05
1e-05
1e-05
1e-05
1e-05
1e-05
1e-05
1e-05
1e-05
1e-05
1e-05
1e-05
1e-05
1e-05
1e-05
1e-05
1e-05
1e-05
1e-05
1e-05
1e-05
1e-05
1e-05
1e-05
1e-05
1e-05
1e-05
1e-05
1e-05
1e-05
1e-05
1e-05
1e-05
1e-05
1e-05
1e-05
1e-05
3.20807e-05
0.000224271
0.000654556
0.00126857
0.00200354
0.00282244
0.00372707
0.00479083
0.00625222
0.00874359
0.0137856
0.0247022
0.0479171
0.093805
0.174697
0.296973
0.449629
0.59976
0.716012
0.79463
0.8452
0.876342
0.893798
0.901078
0.899655
0.888937
0.866115
0.825837
0.759499
0.655215
0.507521
0.341184
0.19986
0.104889
0.0518295
0.0258507
0.0140694
0.00876845
0.00616357
0.00461933
0.00349059
0.00254501
0.00171492
0.00100292
0.00044992
0.000115328
1.29098e-05
1e-05
1e-05
1e-05
1e-05
1e-05
1e-05
1e-05
1e-05
1e-05
1e-05
1e-05
1e-05
1e-05
1e-05
1e-05
1e-05
1e-05
1e-05
1e-05
1e-05
1e-05
1e-05
1e-05
1e-05
1e-05
1e-05
1e-05
1e-05
1e-05
1e-05
1e-05
1e-05
1e-05
1e-05
1e-05
1e-05
1e-05
1e-05
1e-05
1e-05
1e-05
1e-05
1e-05
1e-05
1e-05
1e-05
1e-05
1e-05
1e-05
1e-05
1e-05
1e-05
1.04058e-05
9.65441e-05
0.000433647
0.00100933
0.00174962
0.00260034
0.00354925
0.00466013
0.00617895
0.00882709
0.0145268
0.0279799
0.0593964
0.126918
0.251711
0.434404
0.627326
0.772197
0.861963
0.913617
0.94289
0.959693
0.969336
0.974556
0.976741
0.976419
0.973375
0.966554
0.953662
0.930098
0.886707
0.807109
0.669812
0.471624
0.271046
0.132466
0.0595892
0.027124
0.0137658
0.00823494
0.00566161
0.00416474
0.00307
0.00215522
0.00136546
0.000715464
0.000256944
4.16409e-05
1e-05
1e-05
1e-05
1e-05
1e-05
1e-05
1e-05
1e-05
1e-05
1e-05
1e-05
1e-05
1e-05
1e-05
1e-05
1e-05
1e-05
1e-05
1e-05
1e-05
1e-05
1e-05
1e-05
1e-05
1e-05
1e-05
1e-05
1e-05
1e-05
1e-05
1e-05
1e-05
1e-05
1e-05
1e-05
1e-05
1e-05
1e-05
1e-05
1e-05
1e-05
1e-05
1e-05
1e-05
1e-05
1e-05
1e-05
1e-05
1e-05
1e-05
1e-05
1e-05
2.38822e-05
0.00021407
0.00069371
0.00139808
0.00225223
0.00322167
0.00434485
0.00583244
0.0083724
0.013979
0.0281178
0.0640962
0.148212
0.311179
0.538287
0.739203
0.8635
0.928938
0.961878
0.978545
0.987172
0.991768
0.994256
0.995566
0.996148
0.996164
0.995541
0.99393
0.990543
0.983739
0.969937
0.941202
0.880989
0.759945
0.553401
0.312514
0.142654
0.0591273
0.0251494
0.0122725
0.00723822
0.00493773
0.00357544
0.0025576
0.00170567
0.000988247
0.000436416
0.000107841
1.25547e-05
1e-05
1e-05
1e-05
1e-05
1e-05
1e-05
1e-05
1e-05
1e-05
1e-05
1e-05
1e-05
1e-05
1e-05
1e-05
1e-05
1e-05
1e-05
1e-05
1e-05
1e-05
1e-05
1e-05
1e-05
1e-05
1e-05
1e-05
1e-05
1e-05
1e-05
1e-05
1e-05
1e-05
1e-05
1e-05
1e-05
1e-05
1e-05
1e-05
1e-05
1e-05
1e-05
1e-05
1e-05
1e-05
1e-05
1e-05
1e-05
1e-05
1e-05
1e-05
6.06584e-05
0.000376382
0.000986225
0.00180432
0.00276737
0.00387754
0.00528047
0.00752646
0.0123749
0.0250628
0.0598249
0.148667
0.333763
0.590741
0.795801
0.90701
0.95853
0.981435
0.991619
0.996172
0.998191
0.999069
0.999443
0.999614
0.999721
0.999814
0.999867
0.999756
0.9992
0.997681
0.994041
0.985102
0.963629
0.91262
0.797291
0.579012
0.311598
0.131525
0.0508451
0.020768
0.0100701
0.00599857
0.00409647
0.00291277
0.00199988
0.0012385
0.000625556
0.000208109
3.06097e-05
1e-05
1e-05
1e-05
1e-05
1e-05
1e-05
1e-05
1e-05
1e-05
1e-05
1e-05
1e-05
1e-05
1e-05
1e-05
1e-05
1e-05
1e-05
1e-05
1e-05
1e-05
1e-05
1e-05
1e-05
1e-05
1e-05
1e-05
1e-05
1e-05
1e-05
1e-05
1e-05
1e-05
1e-05
1e-05
1e-05
1e-05
1e-05
1e-05
1e-05
1e-05
1e-05
1e-05
1e-05
1e-05
1e-05
1e-05
1e-05
1e-05
1e-05
1.11298e-05
0.000126803
0.000568951
0.00129552
0.00221718
0.00329443
0.00459824
0.00649626
0.0102801
0.0201198
0.0485332
0.127923
0.312624
0.591648
0.813139
0.924468
0.97103
0.989437
0.996522
0.99905
0.999775
0.999799
0.999603
0.999388
0.999244
0.99921
0.999299
0.999497
0.999744
0.9999
0.9999
0.999622
0.997462
0.990547
0.971401
0.920792
0.796396
0.552111
0.270873
0.104824
0.0384733
0.0155617
0.0077301
0.00472337
0.00322929
0.00223314
0.00144286
0.000797605
0.000321806
6.66439e-05
1.0223e-05
1e-05
1e-05
1e-05
1e-05
1e-05
1e-05
1e-05
1e-05
1e-05
1e-05
1e-05
1e-05
1e-05
1e-05
1e-05
1e-05
1e-05
1e-05
1e-05
1e-05
1e-05
1e-05
1e-05
1e-05
1e-05
1e-05
1e-05
1e-05
1e-05
1e-05
1e-05
1e-05
1e-05
1e-05
1e-05
1e-05
1e-05
1e-05
1e-05
1e-05
1e-05
1e-05
1e-05
1e-05
1e-05
1e-05
1e-05
1e-05
1e-05
2.04401e-05
0.000223497
0.00078164
0.00161129
0.0026311
0.00384138
0.00543923
0.00822677
0.014996
0.0348627
0.0946734
0.253408
0.540457
0.796931
0.924779
0.97459
0.992355
0.998249
0.999876
0.9999
0.999506
0.998977
0.998494
0.998124
0.997892
0.997809
0.997876
0.998087
0.998421
0.998839
0.999344
0.999898
0.9999
0.99817
0.991437
0.970692
0.911459
0.759865
0.475974
0.205287
0.0733432
0.0262097
0.0108336
0.00563618
0.00354245
0.00240076
0.00158443
0.000930324
0.000426437
0.00011557
1.56511e-05
1e-05
1e-05
1e-05
1e-05
1e-05
1e-05
1e-05
1e-05
1e-05
1e-05
1e-05
1e-05
1e-05
1e-05
1e-05
1e-05
1e-05
1e-05
1e-05
1e-05
1e-05
1e-05
1e-05
1e-05
1e-05
1e-05
1e-05
1e-05
1e-05
1e-05
1e-05
1e-05
1e-05
1e-05
1e-05
1e-05
1e-05
1e-05
1e-05
1e-05
1e-05
1e-05
1e-05
1e-05
1e-05
1e-05
1e-05
1e-05
1e-05
4.11325e-05
0.000344716
0.00100635
0.00192699
0.00304463
0.00442389
0.00648164
0.0108091
0.0229791
0.0611798
0.175288
0.435954
0.740808
0.907821
0.971341
0.992439
0.998653
0.9999
0.999763
0.999091
0.998344
0.99766
0.997102
0.996689
0.996426
0.996315
0.996355
0.996546
0.996881
0.997353
0.99797
0.998712
0.999366
0.99943
0.997449
0.989193
0.962234
0.882141
0.680811
0.361734
0.136468
0.0460714
0.0165039
0.0071569
0.00392871
0.00251194
0.0016535
0.00100755
0.000503651
0.000165311
2.66026e-05
1e-05
1e-05
1e-05
1e-05
1e-05
1e-05
1e-05
1e-05
1e-05
1e-05
1e-05
1e-05
1e-05
1e-05
1e-05
1e-05
1e-05
1e-05
1e-05
1e-05
1e-05
1e-05
1e-05
1e-05
1e-05
1e-05
1e-05
1e-05
1e-05
1e-05
1e-05
1e-05
1e-05
1e-05
1e-05
1e-05
1e-05
1e-05
1e-05
1e-05
1e-05
1e-05
1e-05
1e-05
1e-05
1e-05
1e-05
1e-05
1e-05
7.58261e-05
0.000481326
0.00123493
0.00223749
0.00345844
0.00506187
0.00782177
0.0146449
0.0357739
0.103946
0.295591
0.627203
0.864108
0.959009
0.989686
0.998324
0.9999
0.999627
0.998828
0.997917
0.997068
0.996342
0.995761
0.995328
0.995044
0.994907
0.994919
0.995078
0.995384
0.995839
0.996445
0.997194
0.998008
0.998665
0.998499
0.99546
0.98325
0.942692
0.822559
0.550598
0.238862
0.08113
0.026669
0.00982974
0.00452935
0.00259604
0.00164876
0.00101896
0.000539498
0.000201778
3.94973e-05
1.00013e-05
1e-05
1e-05
1e-05
1e-05
1e-05
1e-05
1e-05
1e-05
1e-05
1e-05
1e-05
1e-05
1e-05
1e-05
1e-05
1e-05
1e-05
1e-05
1e-05
1e-05
1e-05
1e-05
1e-05
1e-05
1e-05
1e-05
1e-05
1e-05
1e-05
1e-05
1e-05
1e-05
1e-05
1e-05
1e-05
1e-05
1e-05
1e-05
1e-05
1e-05
1e-05
1e-05
1e-05
1e-05
1e-05
1e-05
1e-05
1.04035e-05
0.000126005
0.00062608
0.00146039
0.00253833
0.00387301
0.00577233
0.00954394
0.0200908
0.054689
0.165946
0.443777
0.769984
0.928813
0.981709
0.996713
0.9999
0.999767
0.998835
0.997771
0.996764
0.995878
0.995134
0.994537
0.994086
0.993779
0.993616
0.993595
0.993719
0.993986
0.9944
0.994961
0.995666
0.996483
0.997309
0.997823
0.996996
0.991545
0.970992
0.903519
0.715554
0.382685
0.13918
0.044323
0.0145519
0.00559149
0.00271435
0.00158
0.000960321
0.00052511
0.000214078
4.89563e-05
1.06152e-05
1e-05
1e-05
1e-05
1e-05
1e-05
1e-05
1e-05
1e-05
1e-05
1e-05
1e-05
1e-05
1e-05
1e-05
1e-05
1e-05
1e-05
1e-05
1e-05
1e-05
1e-05
1e-05
1e-05
1e-05
1e-05
1e-05
1e-05
1e-05
1e-05
1e-05
1e-05
1e-05
1e-05
1e-05
1e-05
1e-05
1e-05
1e-05
1e-05
1e-05
1e-05
1e-05
1e-05
1e-05
1e-05
1e-05
1e-05
1.45474e-05
0.000191372
0.000774159
0.00167745
0.00282527
0.00428603
0.0065591
0.0116785
0.02728
0.0800163
0.244534
0.588341
0.85818
0.961335
0.991791
0.999205
0.9999
0.999105
0.997934
0.996771
0.995722
0.994814
0.994052
0.993436
0.992962
0.992629
0.992436
0.992381
0.992466
0.992691
0.993057
0.993564
0.99421
0.99498
0.995823
0.996574
0.996693
0.994413
0.983923
0.946453
0.828682
0.548666
0.228328
0.0739738
0.0228008
0.00754403
0.00298296
0.00147421
0.000834744
0.000457463
0.000196395
4.99521e-05
1.09568e-05
1e-05
1e-05
1.01313e-05
1.14594e-05
1.4416e-05
1.90714e-05
2.51121e-05
3.17906e-05
3.79722e-05
4.23441e-05
4.37613e-05
4.16297e-05
3.61834e-05
2.85361e-05
2.04468e-05
1.38562e-05
1.02918e-05
1e-05
1e-05
1e-05
1e-05
1e-05
1e-05
1e-05
1e-05
1e-05
1e-05
1e-05
1e-05
1e-05
1e-05
1e-05
1e-05
1e-05
1e-05
1e-05
1e-05
1e-05
1e-05
1e-05
1e-05
1e-05
1e-05
1e-05
1e-05
1e-05
1e-05
2.37587e-05
0.000268773
0.000921401
0.00188171
0.00309341
0.00468965
0.00740242
0.0141615
0.0359692
0.110524
0.331335
0.699693
0.908788
0.97777
0.996295
0.9999
0.999586
0.9984
0.997096
0.99588
0.994803
0.993874
0.993091
0.992451
0.99195
0.991587
0.991359
0.991268
0.991312
0.991491
0.991806
0.992257
0.99284
0.993548
0.994352
0.99516
0.995678
0.994924
0.989608
0.968751
0.897934
0.697065
0.352692
0.122164
0.037044
0.0111452
0.00361978
0.00138917
0.00065629
0.000341168
0.000149343
4.03203e-05
1.1056e-05
1.38614e-05
2.51369e-05
4.36897e-05
7.06118e-05
0.000105743
0.000147412
0.000192531
0.000236881
0.000275663
0.000304193
0.000318563
0.000316191
0.000296252
0.000260033
0.000211211
0.000155921
0.00010211
5.74417e-05
2.70564e-05
1.21606e-05
1e-05
1e-05
1e-05
1e-05
1e-05
1e-05
1e-05
1e-05
1e-05
1e-05
1e-05
1e-05
1e-05
1e-05
1e-05
1e-05
1e-05
1e-05
1e-05
1e-05
1e-05
1e-05
1e-05
1e-05
1e-05
1e-05
1e-05
3.85872e-05
0.00035236
0.00106272
0.00206844
0.00333618
0.00506825
0.00825122
0.0168061
0.0454514