# vtk DataFile Version 2.0
time_10.vtk
ASCII
DATASET STRUCTURED_GRID
DIMENSIONS 100 100 1
POINTS 10000 float
-0.4 -0.4 0
-0.4 0 0
-0.4 0.4 0
-0.4 0.8 0
-0.4 1.2 0
-0.4 1.6 0
-0.4 2 0
-0.4 2.4 0
-0.4 2.8 0
-0.4 3.2 0
-0.4 3.6 0
-0.4 4 0
-0.4 4.4 0
-0.4 4.8 0
-0.4 5.2 0
-0.4 5.6 0
-0.4 6 0
-0.4 6.4 0
-0.4 6.8 0
-0.4 7.2 0
-0.4 7.6 0
-0.4 8 0
-0.4 8.4 0
-0.4 8.8 0
-0.4 9.2 0
-0.4 9.6 0
-0.4 10 0
-0.4 10.4 0
-0.4 10.8 0
-0.4 11.2 0
-0.4 11.6 0
-0.4 12 0
-0.4 12.4 0
-0.4 12.8 0
-0.4 13.2 0
-0.4 13.6 0
-0.4 14 0
-0.4 14.4 0
-0.4 14.8 0
-0.4 15.2 0
-0.4 15.6 0
-0.4 16 0
-0.4 16.4 0
-0.4 16.8 0
-0.4 17.2 0
-0.4 17.6 0
-0.4 18 0
-0.4 18.4 0
-0.4 18.8 0
-0.4 19.2 0
-0.4 19.6 0
-0.4 20 0
-0.4 20.4 0
-0.4 20.8 0
-0.4 21.2 0
-0.4 21.6 0
-0.4 22 0
-0.4 22.4 0
-0.4 22.8 0
-0.4 23.2 0
-0.4 23.6 0
-0.4 24 0
-0.4 24.4 0
-0.4 24.8 0
-0.4 25.2 0
-0.4 25.6 0
-0.4 26 0
-0.4 26.4 0
-0.4 26.8 0
-0.4 27.2 0
-0.4 27.6 0
-0.4 28 0
-0.4 28.4 0
-0.4 28.8 0
-0.4 29.2 0
-0.4 29.6 0
-0.4 30 0
-0.4 30.4 0
-0.4 30.8 0
-0.4 31.2 0
-0.4 31.6 0
-0.4 32 0
-0.4 32.4 0
-0.4 32.8 0
-0.4 33.2 0
-0.4 33.6 0
-0.4 34 0
-0.4 34.4 0
-0.4 34.8 0
-0.4 35.2 0
-0.4 35.6 0
-0.4 36 0
-0.4 36.4 0
-0.4 36.8 0
-0.4 37.2 0
-0.4 37.6 0
-0.4 38 0
-0.4 38.4 0
-0.4 38.8 0
-0.4 39.2 0
0 -0.4 0
0 0 0
0 0.4 0
0 0.8 0
0 1.2 0
0 1.6 0
0 2 0
0 2.4 0
0 2.8 0
0 3.2 0
0 3.6 0
0 4 0
0 4.4 0
0 4.8 0
0 5.2 0
0 5.6 0
0 6 0
0 6.4 0
0 6.8 0
0 7.2 0
0 7.6 0
0 8 0
0 8.4 0
0 8.8 0
0 9.2 0
0 9.6 0
0 10 0
0 10.4 0
0 10.8 0
0 11.2 0
0 11.6 0
0 12 0
0 12.4 0
0 12.8 0
0 13.2 0
0 13.6 0
0 14 0
0 14.4 0
0 14.8 0
0 15.2 0
0 15.6 0
0 16 0
0 16.4 0
0 16.8 0
0 17.2 0
0 17.6 0
0 18 0
0 18.4 0
0 18.8 0
0 19.2 0
0 19.6 0
0 20 0
0 20.4 0
0 20.8 0
0 21.2 0
0 21.6 0
0 22 0
0 22.4 0
0 22.8 0
0 23.2 0
0 23.6 0
0 24 0
0 24.4 0
0 24.8 0
0 25.2 0
0 25.6 0
0 26 0
0 26.4 0
0 26.8 0
0 27.2 0
0 27.6 0
0 28 0
0 28.4 0
0 28.8 0
0 29.2 0
0 29.6 0
0 30 0
0 30.4 0
0 30.8 0
0 31.2 0
0 31.6 0
0 32 0
0 32.4 0
0 32.8 0
0 33.2 0
0 33.6 0
0 34 0
0 34.4 0
0 34.8 0
0 35.2 0
0 35.6 0
0 36 0
0 36.4 0
0 36.8 0
0 37.2 0
0 37.6 0
0 38 0
0 38.4 0
0 38.8 0
0 39.2 0
0.4 -0.4 0
0.4 0 0
0.4 0.4 0
0.4 0.8 0
0.4 1.2 0
0.4 1.6 0
0.4 2 0
0.4 2.4 0
0.4 2.8 0
0.4 3.2 0
0.4 3.6 0
0.4 4 0
0.4 4.4 0
0.4 4.8 0
0.4 5.2 0
0.4 5.6 0
0.4 6 0
0.4 6.4 0
0.4 6.8 0
0.4 7.2 0
0.4 7.6 0
0.4 8 0
0.4 8.4 0
0.4 8.8 0
0.4 9.2 0
0.4 9.6 0
0.4 10 0
0.4 10.4 0
0.4 10.8 0
0.4 11.2 0
0.4 11.6 0
0.4 12 0
0.4 12.4 0
0.4 12.8 0
0.4 13.2 0
0.4 13.6 0
0.4 14 0
0.4 14.4 0
0.4 14.8 0
0.4 15.2 0
0.4 15.6 0
0.4 16 0
0.4 16.4 0
0.4 16.8 0
0.4 17.2 0
0.4 17.6 0
0.4 18 0
0.4 18.4 0
0.4 18.8 0
0.4 19.2 0
0.4 19.6 0
0.4 20 0
0.4 20.4 0
0.4 20.8 0
0.4 21.2 0
0.4 21.6 0
0.4 22 0
0.4 22.4 0
0.4 22.8 0
0.4 23.2 0
0.4 23.6 0
0.4 24 0
0.4 24.4 0
0.4 24.8 0
0.4 25.2 0
0.4 25.6 0
0.4 26 0
0.4 26.4 0
0.4 26.8 0
0.4 27.2 0
0.4 27.6 0
0.4 28 0
0.4 28.4 0
0.4 28.8 0
0.4 29.2 0
0.4 29.6 0
0.4 30 0
0.4 30.4 0
0.4 30.8 0
0.4 31.2 0
0.4 31.6 0
0.4 32 0
0.4 32.4 0
0.4 32.8 0
0.4 33.2 0
0.4 33.6 0
0.4 34 0
0.4 34.4 0
0.4 34.8 0
0.4 35.2 0
0.4 35.6 0
0.4 36 0
0.4 36.4 0
0.4 36.8 0
0.4 37.2 0
0.4 37.6 0
0.4 38 0
0.4 38.4 0
0.4 38.8 0
0.4 39.2 0
0.8 -0.4 0
0.8 0 0
0.8 0.4 0
0.8 0.8 0
0.8 1.2 0
0.8 1.6 0
0.8 2 0
0.8 2.4 0
0.8 2.8 0
0.8 3.2 0
0.8 3.6 0
0.8 4 0
0.8 4.4 0
0.8 4.8 0
0.8 5.2 0
0.8 5.6 0
0.8 6 0
0.8 6.4 0
0.8 6.8 0
0.8 7.2 0
0.8 7.6 0
0.8 8 0
0.8 8.4 0
0.8 8.8 0
0.8 9.2 0
0.8 9.6 0
0.8 10 0
0.8 10.4 0
0.8 10.8 0
0.8 11.2 0
0.8 11.6 0
0.8 12 0
0.8 12.4 0
0.8 12.8 0
0.8 13.2 0
0.8 13.6 0
0.8 14 0
0.8 14.4 0
0.8 14.8 0
0.8 15.2 0
0.8 15.6 0
0.8 16 0
0.8 16.4 0
0.8 16.8 0
0.8 17.2 0
0.8 17.6 0
0.8 18 0
0.8 18.4 0
0.8 18.8 0
0.8 19.2 0
0.8 19.6 0
0.8 20 0
0.8 20.4 0
0.8 20.8 0
0.8 21.2 0
0.8 21.6 0
0.8 22 0
0.8 22.4 0
0.8 22.8 0
0.8 23.2 0
0.8 23.6 0
0.8 24 0
0.8 24.4 0
0.8 24.8 0
0.8 25.2 0
0.8 25.6 0
0.8 26 0
0.8 26.4 0
0.8 26.8 0
0.8 27.2 0
0.8 27.6 0
0.8 28 0
0.8 28.4 0
0.8 28.8 0
0.8 29.2 0
0.8 29.6 0
0.8 30 0
0.8 30.4 0
0.8 30.8 0
0.8 31.2 0
0.8 31.6 0
0.8 32 0
0.8 32.4 0
0.8 32.8 0
0.8 33.2 0
0.8 33.6 0
0.8 34 0
0.8 34.4 0
0.8 34.8 0
0.8 35.2 0
0.8 35.6 0
0.8 36 0
0.8 36.4 0
0.8 36.8 0
0.8 37.2 0
0.8 37.6 0
0.8 38 0
0.8 38.4 0
0.8 38.8 0
0.8 39.2 0
1.2 -0.4 0
1.2 0 0
1.2 0.4 0
1.2 0.8 0
1.2 1.2 0
1.2 1.6 0
1.2 2 0
1.2 2.4 0
1.2 2.8 0
1.2 3.2 0
1.2 3.6 0
1.2 4 0
1.2 4.4 0
1.2 4.8 0
1.2 5.2 0
1.2 5.6 0
1.2 6 0
1.2 6.4 0
1.2 6.8 0
1.2 7.2 0
1.2 7.6 0
1.2 8 0
1.2 8.4 0
1.2 8.8 0
1.2 9.2 0
1.2 9.6 0
1.2 10 0
1.2 10.4 0
1.2 10.8 0
1.2 11.2 0
1.2 11.6 0
1.2 12 0
1.2 12.4 0
1.2 12.8 0
1.2 13.2 0
1.2 13.6 0
1.2 14 0
1.2 14.4 0
1.2 14.8 0
1.2 15.2 0
1.2 15.6 0
1.2 16 0
1.2 16.4 0
1.2 16.8 0
1.2 17.2 0
1.2 17.6 0
1.2 18 0
1.2 18.4 0
1.2 18.8 0
1.2 19.2 0
1.2 19.6 0
1.2 20 0
1.2 20.4 0
1.2 20.8 0
1.2 21.2 0
1.2 21.6 0
1.2 22 0
1.2 22.4 0
1.2 22.8 0
1.2 23.2 0
1.2 23.6 0
1.2 24 0
1.2 24.4 0
1.2 24.8 0
1.2 25.2 0
1.2 25.6 0
1.2 26 0
1.2 26.4 0
1.2 26.8 0
1.2 27.2 0
1.2 27.6 0
1.2 28 0
1.2 28.4 0
1.2 28.8 0
1.2 29.2 0
1.2 29.6 0
1.2 30 0
1.2 30.4 0
1.2 30.8 0
1.2 31.2 0
1.2 31.6 0
1.2 32 0
1.2 32.4 0
1.2 32.8 0
1.2 33.2 0
1.2 33.6 0
1.2 34 0
1.2 34.4 0
1.2 34.8 0
1.2 35.2 0
1.2 35.6 0
1.2 36 0
1.2 36.4 0
1.2 36.8 0
1.2 37.2 0
1.2 37.6 0
1.2 38 0
1.2 38.4 0
1.2 38.8 0
1.2 39.2 0
1.6 -0.4 0
1.6 0 0
1.6 0.4 0
1.6 0.8 0
1.6 1.2 0
1.6 1.6 0
1.6 2 0
1.6 2.4 0
1.6 2.8 0
1.6 3.2 0
1.6 3.6 0
1.6 4 0
1.6 4.4 0
1.6 4.8 0
1.6 5.2 0
1.6 5.6 0
1.6 6 0
1.6 6.4 0
1.6 6.8 0
1.6 7.2 0
1.6 7.6 0
1.6 8 0
1.6 8.4 0
1.6 8.8 0
1.6 9.2 0
1.6 9.6 0
1.6 10 0
1.6 10.4 0
1.6 10.8 0
1.6 11.2 0
1.6 11.6 0
1.6 12 0
1.6 12.4 0
1.6 12.8 0
1.6 13.2 0
1.6 13.6 0
1.6 14 0
1.6 14.4 0
1.6 14.8 0
1.6 15.2 0
1.6 15.6 0
1.6 16 0
1.6 16.4 0
1.6 16.8 0
1.6 17.2 0
1.6 17.6 0
1.6 18 0
1.6 18.4 0
1.6 18.8 0
1.6 19.2 0
1.6 19.6 0
1.6 20 0
1.6 20.4 0
1.6 20.8 0
1.6 21.2 0
1.6 21.6 0
1.6 22 0
1.6 22.4 0
1.6 22.8 0
1.6 23.2 0
1.6 23.6 0
1.6 24 0
1.6 24.4 0
1.6 24.8 0
1.6 25.2 0
1.6 25.6 0
1.6 26 0
1.6 26.4 0
1.6 26.8 0
1.6 27.2 0
1.6 27.6 0
1.6 28 0
1.6 28.4 0
1.6 28.8 0
1.6 29.2 0
1.6 29.6 0
1.6 30 0
1.6 30.4 0
1.6 30.8 0
1.6 31.2 0
1.6 31.6 0
1.6 32 0
1.6 32.4 0
1.6 32.8 0
1.6 33.2 0
1.6 33.6 0
1.6 34 0
1.6 34.4 0
1.6 34.8 0
1.6 35.2 0
1.6 35.6 0
1.6 36 0
1.6 36.4 0
1.6 36.8 0
1.6 37.2 0
1.6 37.6 0
1.6 38 0
1.6 38.4 0
1.6 38.8 0
1.6 39.2 0
2 -0.4 0
2 0 0
2 0.4 0
2 0.8 0
2 1.2 0
2 1.6 0
2 2 0
2 2.4 0
2 2.8 0
2 3.2 0
2 3.6 0
2 4 0
2 4.4 0
2 4.8 0
2 5.2 0
2 5.6 0
2 6 0
2 6.4 0
2 6.8 0
2 7.2 0
2 7.6 0
2 8 0
2 8.4 0
2 8.8 0
2 9.2 0
2 9.6 0
2 10 0
2 10.4 0
2 10.8 0
2 11.2 0
2 11.6 0
2 12 0
2 12.4 0
2 12.8 0
2 13.2 0
2 13.6 0
2 14 0
2 14.4 0
2 14.8 0
2 15.2 0
2 15.6 0
2 16 0
2 16.4 0
2 16.8 0
2 17.2 0
2 17.6 0
2 18 0
2 18.4 0
2 18.8 0
2 19.2 0
2 19.6 0
2 20 0
2 20.4 0
2 20.8 0
2 21.2 0
2 21.6 0
2 22 0
2 22.4 0
2 22.8 0
2 23.2 0
2 23.6 0
2 24 0
2 24.4 0
2 24.8 0
2 25.2 0
2 25.6 0
2 26 0
2 26.4 0
2 26.8 0
2 27.2 0
2 27.6 0
2 28 0
2 28.4 0
2 28.8 0
2 29.2 0
2 29.6 0
2 30 0
2 30.4 0
2 30.8 0
2 31.2 0
2 31.6 0
2 32 0
2 32.4 0
2 32.8 0
2 33.2 0
2 33.6 0
2 34 0
2 34.4 0
2 34.8 0
2 35.2 0
2 35.6 0
2 36 0
2 36.4 0
2 36.8 0
2 37.2 0
2 37.6 0
2 38 0
2 38.4 0
2 38.8 0
2 39.2 0
2.4 -0.4 0
2.4 0 0
2.4 0.4 0
2.4 0.8 0
2.4 1.2 0
2.4 1.6 0
2.4 2 0
2.4 2.4 0
2.4 2.8 0
2.4 3.2 0
2.4 3.6 0
2.4 4 0
2.4 4.4 0
2.4 4.8 0
2.4 5.2 0
2.4 5.6 0
2.4 6 0
2.4 6.4 0
2.4 6.8 0
2.4 7.2 0
2.4 7.6 0
2.4 8 0
2.4 8.4 0
2.4 8.8 0
2.4 9.2 0
2.4 9.6 0
2.4 10 0
2.4 10.4 0
2.4 10.8 0
2.4 11.2 0
2.4 11.6 0
2.4 12 0
2.4 12.4 0
2.4 12.8 0
2.4 13.2 0
2.4 13.6 0
2.4 14 0
2.4 14.4 0
2.4 14.8 0
2.4 15.2 0
2.4 15.6 0
2.4 16 0
2.4 16.4 0
2.4 16.8 0
2.4 17.2 0
2.4 17.6 0
2.4 18 0
2.4 18.4 0
2.4 18.8 0
2.4 19.2 0
2.4 19.6 0
2.4 20 0
2.4 20.4 0
2.4 20.8 0
2.4 21.2 0
2.4 21.6 0
2.4 22 0
2.4 22.4 0
2.4 22.8 0
2.4 23.2 0
2.4 23.6 0
2.4 24 0
2.4 24.4 0
2.4 24.8 0
2.4 25.2 0
2.4 25.6 0
2.4 26 0
2.4 26.4 0
2.4 26.8 0
2.4 27.2 0
2.4 27.6 0
2.4 28 0
2.4 28.4 0
2.4 28.8 0
2.4 29.2 0
2.4 29.6 0
2.4 30 0
2.4 30.4 0
2.4 30.8 0
2.4 31.2 0
2.4 31.6 0
2.4 32 0
2.4 32.4 0
2.4 32.8 0
2.4 33.2 0
2.4 33.6 0
2.4 34 0
2.4 34.4 0
2.4 34.8 0
2.4 35.2 0
2.4 35.6 0
2.4 36 0
2.4 36.4 0
2.4 36.8 0
2.4 37.2 0
2.4 37.6 0
2.4 38 0
2.4 38.4 0
2.4 38.8 0
2.4 39.2 0
2.8 -0.4 0
2.8 0 0
2.8 0.4 0
2.8 0.8 0
2.8 1.2 0
2.8 1.6 0
2.8 2 0
2.8 2.4 0
2.8 2.8 0
2.8 3.2 0
2.8 3.6 0
2.8 4 0
2.8 4.4 0
2.8 4.8 0
2.8 5.2 0
2.8 5.6 0
2.8 6 0
2.8 6.4 0
2.8 6.8 0
2.8 7.2 0
2.8 7.6 0
2.8 8 0
2.8 8.4 0
2.8 8.8 0
2.8 9.2 0
2.8 9.6 0
2.8 10 0
2.8 10.4 0
2.8 10.8 0
2.8 11.2 0
2.8 11.6 0
2.8 12 0
2.8 12.4 0
2.8 12.8 0
2.8 13.2 0
2.8 13.6 0
2.8 14 0
2.8 14.4 0
2.8 14.8 0
2.8 15.2 0
2.8 15.6 0
2.8 16 0
2.8 16.4 0
2.8 16.8 0
2.8 17.2 0
2.8 17.6 0
2.8 18 0
2.8 18.4 0
2.8 18.8 0
2.8 19.2 0
2.8 19.6 0
2.8 20 0
2.8 20.4 0
2.8 20.8 0
2.8 21.2 0
2.8 21.6 0
2.8 22 0
2.8 22.4 0
2.8 22.8 0
2.8 23.2 0
2.8 23.6 0
2.8 24 0
2.8 24.4 0
2.8 24.8 0
2.8 25.2 0
2.8 25.6 0
2.8 26 0
2.8 26.4 0
2.8 26.8 0
2.8 27.2 0
2.8 27.6 0
2.8 28 0
2.8 28.4 0
2.8 28.8 0
2.8 29.2 0
2.8 29.6 0
2.8 30 0
2.8 30.4 0
2.8 30.8 0
2.8 31.2 0
2.8 31.6 0
2.8 32 0
2.8 32.4 0
2.8 32.8 0
2.8 33.2 0
2.8 33.6 0
2.8 34 0
2.8 34.4 0
2.8 34.8 0
2.8 35.2 0
2.8 35.6 0
2.8 36 0
2.8 36.4 0
2.8 36.8 0
2.8 37.2 0
2.8 37.6 0
2.8 38 0
2.8 38.4 0
2.8 38.8 0
2.8 39.2 0
3.2 -0.4 0
3.2 0 0
3.2 0.4 0
3.2 0.8 0
3.2 1.2 0
3.2 1.6 0
3.2 2 0
3.2 2.4 0
3.2 2.8 0
3.2 3.2 0
3.2 3.6 0
3.2 4 0
3.2 4.4 0
3.2 4.8 0
3.2 5.2 0
3.2 5.6 0
3.2 6 0
3.2 6.4 0
3.2 6.8 0
3.2 7.2 0
3.2 7.6 0
3.2 8 0
3.2 8.4 0
3.2 8.8 0
3.2 9.2 0
3.2 9.6 0
3.2 10 0
3.2 10.4 0
3.2 10.8 0
3.2 11.2 0
3.2 11.6 0
3.2 12 0
3.2 12.4 0
3.2 12.8 0
3.2 13.2 0
3.2 13.6 0
3.2 14 0
3.2 14.4 0
3.2 14.8 0
3.2 15.2 0
3.2 15.6 0
3.2 16 0
3.2 16.4 0
3.2 16.8 0
3.2 17.2 0
3.2 17.6 0
3.2 18 0
3.2 18.4 0
3.2 18.8 0
3.2 19.2 0
3.2 19.6 0
3.2 20 0
3.2 20.4 0
3.2 20.8 0
3.2 21.2 0
3.2 21.6 0
3.2 22 0
3.2 22.4 0
3.2 22.8 0
3.2 23.2 0
3.2 23.6 0
3.2 24 0
3.2 24.4 0
3.2 24.8 0
3.2 25.2 0
3.2 25.6 0
3.2 26 0
3.2 26.4 0
3.2 26.8 0
3.2 27.2 0
3.2 27.6 0
3.2 28 0
3.2 28.4 0
3.2 28.8 0
3.2 29.2 0
3.2 29.6 0
3.2 30 0
3.2 30.4 0
3.2 30.8 0
3.2 31.2 0
3.2 31.6 0
3.2 32 0
3.2 32.4 0
3.2 32.8 0
3.2 33.2 0
[...]
POINT_DATA 10000
SCALARS CON float 1
LOOKUP_TABLE default
1e-05
1e-05
1e-05
1e-05
1e-05
1e-05
1e-05
1e-05
1e-05
1e-05
1e-05
1e-05
1e-05
1e-05
1e-05
1e-05
1e-05
1e-05
1e-05
1e-05
1e-05
1e-05
1e-05
1e-05
1e-05
1e-05
1e-05
1e-05
1e-05
1e-05
1e-05
1e-05
1e-05
1e-05
1e-05
1e-05
1e-05
1e-05
1e-05
1e-05
1e-05
1e-05
1e-05
1e-05
1e-05
1e-05
1e-05
1e-05
1e-05
1e-05
1e-05
1e-05
1e-05
1e-05
1e-05
1e-05
1e-05
1e-05
1e-05
1e-05
1e-05
1e-05
1e-05
1e-05
1e-05
1e-05
1e-05
1e-05
1e-05
1e-05
1e-05
1e-05
1e-05
1e-05
1e-05
1e-05
1e-05
1e-05
1e-05
1e-05
1e-05
1e-05
1e-05
1e-05
1e-05
1e-05
1e-05
1e-05
1e-05
1e-05
1e-05
1e-05
1e-05
1e-05
1e-05
1e-05
1e-05
1e-05
1e-05
1e-05
1e-05
1e-05
1e-05
1e-05
1e-05
1e-05
1e-05
1e-05
1e-05
1e-05
1e-05
1e-05
1e-05
1e-05
1e-05
1e-05
1e-05
1e-05
1e-05
1e-05
1e-05
1e-05
1e-05
1e-05
1e-05
1e-05
1e-05
1e-05
1e-05
1e-05
1e-05
1e-05
1e-05
1e-05
1e-05
1e-05
1e-05
1e-05
1e-05
1e-05
1e-05
1e-05
1e-05
1e-05
1e-05
1e-05
1e-05
1e-05
1e-05
1e-05
1e-05
1e-05
1e-05
1e-05
1e-05
1e-05
1e-05
1e-05
1e-05
1e-05
1e-05
1e-05
1e-05
1e-05
1e-05
1e-05
1e-05
1e-05
1e-05
1e-05
1e-05
1e-05
1e-05
1e-05
1e-05
1e-05
1e-05
1e-05
1e-05
1e-05
1e-05
1e-05
1e-05
1e-05
1e-05
1e-05
1e-05
1e-05
1e-05
1e-05
1e-05
1e-05
1e-05
1e-05
1e-05
1e-05
1e-05
1e-05
1e-05
1e-05
1e-05
1e-05
1e-05
1e-05
1e-05
1e-05
1e-05
1e-05
1e-05
1e-05
1e-05
1e-05
1e-05
1e-05
1e-05
1e-05
1e-05
1e-05
1e-05
1e-05
1e-05
1e-05
1e-05
1e-05
1e-05
1e-05
1e-05
1e-05
1e-05
1e-05
1e-05
1e-05
1e-05
1e-05
1e-05
1e-05
1e-05
1e-05
1e-05
1e-05
1e-05
1e-05
1e-05
1e-05
1e-05
1e-05
1e-05
1e-05
1e-05
1e-05
1e-05
1e-05
1e-05
1e-05
1e-05
1e-05
1e-05
1e-05
1e-05
1e-05
1e-05
1e-05
1e-05
1e-05
1e-05
1e-05
1e-05
1e-05
1e-05
1e-05
1e-05
1e-05
1e-05
1e-05
1e-05
1e-05
1e-05
1e-05
1e-05
1e-05
1e-05
1e-05
1e-05
1e-05
1e-05
1e-05
1e-05
1e-05
1e-05
1e-05
1e-05
1e-05
1e-05
1e-05
1e-05
1e-05
1e-05
1e-05
1e-05
1e-05
1e-05
1e-05
1e-05
1e-05
1e-05
1e-05
1e-05
1e-05
1e-05
1e-05
1e-05
1e-05
1e-05
1e-05
1e-05
1e-05
1e-05
1e-05
1e-05
1e-05
1e-05
1e-05
1e-05
1e-05
1e-05
1.06627e-05
1.47119e-05
2.21315e-05
3.21015e-05
4.30986e-05
5.32173e-05
6.05842e-05
6.37668e-05
6.20761e-05
5.57287e-05
4.58535e-05
3.43142e-05
2.33288e-05
1.49495e-05
1.04882e-05
1e-05
1e-05
1e-05
1e-05
1e-05
1e-05
1e-05
1e-05
1e-05
1e-05
1e-05
1e-05
1e-05
1e-05
1e-05
1e-05
1e-05
1e-05
1e-05
1e-05
1e-05
1e-05
1e-05
1e-05
1e-05
1e-05
1e-05
1e-05
1e-05
1e-05
1e-05
1e-05
1e-05
1e-05
1e-05
1e-05
1e-05
1e-05
1e-05
1e-05
1e-05
1e-05
1e-05
1e-05
1e-05
1e-05
1e-05
1e-05
1e-05
1e-05
1e-05
1e-05
1e-05
1e-05
1e-05
1e-05
1e-05
1e-05
1e-05
1e-05
1e-05
1e-05
1e-05
1e-05
1e-05
1e-05
1e-05
1e-05
1e-05
1e-05
1e-05
1e-05
1e-05
1e-05
1e-05
1e-05
1e-05
1e-05
1e-05
1e-05
1e-05
1.05019e-05
1.70393e-05
3.2617e-05
5.90226e-05
9.62374e-05
0.000142492
0.00019392
0.000245458
0.000292087
0.000329523
0.000354452
0.000364578
0.00035868
0.000336704
0.000299924
0.000251142
0.000194903
0.000137461
8.59539e-05
4.63179e-05
2.14364e-05
1.0752e-05
1e-05
1e-05
1e-05
1e-05
1e-05
1e-05
1e-05
1e-05
1e-05
1e-05
1e-05
1e-05
1e-05
1e-05
1e-05
1e-05
1e-05
1e-05
1e-05
1e-05
1e-05
1e-05
1e-05
1e-05
1e-05
1e-05
1e-05
1e-05
1e-05
1e-05
1e-05
1e-05
1e-05
1e-05
1e-05
1e-05
1e-05
1e-05
1e-05
1e-05
1e-05
1e-05
1e-05
1e-05
1e-05
1e-05
1e-05
1e-05
1e-05
1e-05
1e-05
1e-05
1e-05
1e-05
1e-05
1e-05
1e-05
1e-05
1e-05
1e-05
1e-05
1e-05
1e-05
1e-05
1e-05
1e-05
1e-05
1e-05
1e-05
1e-05
1e-05
1e-05
1e-05
1e-05
1e-05
1.10586e-05
2.18572e-05
4.79944e-05
9.39243e-05
0.000161808
0.000249273
0.000350052
0.000457329
0.000565215
0.000668526
0.000762273
0.000841753
0.000902815
0.000942079
0.000957051
0.000946218
0.000909136
0.000846565
0.000760644
0.000655087
0.000535312
0.000408455
0.000283495
0.000171944
8.65737e-05
3.46416e-05
1.24357e-05
1e-05
1e-05
1e-05
1e-05
1e-05
1e-05
1e-05
1e-05
1e-05
1e-05
1e-05
1e-05
1e-05
1e-05
1e-05
1e-05
1e-05
1e-05
1e-05
1e-05
1e-05
1e-05
1e-05
1e-05
1e-05
1e-05
1e-05
1e-05
1e-05
1e-05
1e-05
1e-05
1e-05
1e-05
1e-05
1e-05
1e-05
1e-05
1e-05
1e-05
1e-05
1e-05
1e-05
1e-05
1e-05
1e-05
1e-05
1e-05
1e-05
1e-05
1e-05
1e-05
1e-05
1e-05
1e-05
1e-05
1e-05
1e-05
1e-05
1e-05
1e-05
1e-05
1e-05
1e-05
1e-05
1e-05
1e-05
1e-05
1e-05
1e-05
1e-05
1.70146e-05
4.35037e-05
9.76194e-05
0.000184509
0.000301408
0.000440952
0.000596499
0.000762276
0.000931963
0.00109922
0.00125835
0.00140428
0.00153226
0.00163772
0.00171653
0.00176521
0.00178123
0.00176307
0.00171027
0.0016234
0.00150407
0.00135507
0.00118055
0.000986375
0.000780695
0.000574672
0.000382216
0.000218403
9.8765e-05
3.29396e-05
1.05646e-05
1e-05
1e-05
1e-05
1e-05
1e-05
1e-05
1e-05
1e-05
1e-05
1e-05
1e-05
1e-05
1e-05
1e-05
1e-05
1e-05
1e-05
1e-05
1e-05
1e-05
1e-05
1e-05
1e-05
1e-05
1e-05
1e-05
1e-05
1e-05
1e-05
1e-05
1e-05
1e-05
1e-05
1e-05
1e-05
1e-05
1e-05
1e-05
1e-05
1e-05
1e-05
1e-05
1e-05
1e-05
1e-05
1e-05
1e-05
1e-05
1e-05
1e-05
1e-05
1e-05
1e-05
1e-05
1e-05
1e-05
1e-05
1e-05
1e-05
1e-05
1e-05
1e-05
1e-05
1e-05
1e-05
1e-05
1e-05
1.99806e-05
5.87322e-05
0.000138644
0.000263278
0.000425262
0.000616281
0.000828277
0.00105301
0.00128365
0.00151493
0.00174205
0.00196017
0.00216427
0.0023491
0.00250905
0.00263844
0.00273206
0.00278585
0.0027973
0.00276555
0.00269109
0.00257537
0.00242047
0.00222908
0.00200472
0.00175211
0.00147779
0.00119069
0.000902352
0.000627331
0.000383923
0.00019255
7.02303e-05
1.77125e-05
1e-05
1e-05
1e-05
1e-05
1e-05
1e-05
1e-05
1e-05
1e-05
1e-05
1e-05
1e-05
1e-05
1e-05
1e-05
1e-05
1e-05
1e-05
1e-05
1e-05
1e-05
1e-05
1e-05
1e-05
1e-05
1e-05
1e-05
1e-05
1e-05
1e-05
1e-05
1e-05
1e-05
1e-05
1e-05
1e-05
1e-05
1e-05
1e-05
1e-05
1e-05
1e-05
1e-05
1e-05
1e-05
1e-05
1e-05
1e-05
1e-05
1e-05
1e-05
1e-05
1e-05
1e-05
1e-05
1e-05
1e-05
1e-05
1e-05
1e-05
1e-05
1e-05
1e-05
1e-05
1.45205e-05
5.09324e-05
0.00013949
0.000287474
0.000486202
0.000724236
0.000989543
0.00127226
0.00156494
0.00186169
0.00215814
0.00245105
0.00273736
0.00301312
0.00327282
0.00350907
0.0037128
0.00387432
0.003985
0.00403898
0.00403421
0.00397228
0.00385729
0.00369428
0.00348813
0.00324301
0.00296264
0.00265086
0.00231249
0.00195404
0.00158432
0.00121508
0.000861877
0.000544516
0.000286623
0.000110997
2.76234e-05
1e-05
1e-05
1e-05
1e-05
1e-05
1e-05
1e-05
1e-05
1e-05
1e-05
1e-05
1e-05
1e-05
1e-05
1e-05
1e-05
1e-05
1e-05
1e-05
1e-05
1e-05
1e-05
1e-05
1e-05
1e-05
1e-05
1e-05
1e-05
1e-05
1e-05
1e-05
1e-05
1e-05
1e-05
1e-05
1e-05
1e-05
1e-05
1e-05
1e-05
1e-05
1e-05
1e-05
1e-05
1e-05
1e-05
1e-05
1e-05
1e-05
1e-05
1e-05
1e-05
1e-05
1e-05
1e-05
1e-05
1e-05
1e-05
1e-05
1e-05
1e-05
1e-05
2.54335e-05
9.35507e-05
0.00023698
0.000451565
0.000722711
0.00103383
0.00137132
0.00172476
0.00208696
0.0024538
0.00282365
0.00319677
0.00357413
0.00395547
0.00433686
0.00470883
0.00505572
0.00535665
0.00558873
0.00573215
0.00577552
0.00571889
0.00557276
0.00535387
0.00507998
0.00476589
0.00442169
0.00405273
0.00366127
0.00324868
0.00281739
0.0023722
0.00192097
0.00147527
0.00105098
0.000669131
0.000355836
0.000139078
3.33763e-05
1e-05
1e-05
1e-05
1e-05
1e-05
1e-05
1e-05
1e-05
1e-05
1e-05
1e-05
1e-05
1e-05
1e-05
1e-05
1e-05
1e-05
1e-05
1e-05
1e-05
1e-05
1e-05
1e-05
1e-05
1e-05
1e-05
1e-05
1e-05
1e-05
1e-05
1e-05
1e-05
1e-05
1e-05
1e-05
1e-05
1e-05
1e-05
1e-05
1e-05
1e-05
1e-05
1e-05
1e-05
1e-05
1e-05
1e-05
1e-05
1e-05
1e-05
1e-05
1e-05
1e-05
1e-05
1e-05
1e-05
1e-05
1e-05
1e-05
1e-05
3.42104e-05
0.00013005
0.000320774
0.000595634
0.000933303
0.0013139
0.00172183
0.00214637
0.00258141
0.00302571
0.00348336
0.0039638
0.00448066
0.0050482
0.005675
0.00635586
0.00706539
0.00775692
0.00836623
0.00882186
0.00906285
0.00905786
0.00881577
0.00838162
0.00782026
0.00719711
0.00656419
0.00595325
0.00537495
0.00482454
0.00429049
0.00376178
0.00323191
0.00270022
0.00217175
0.00165691
0.00117158
0.000737905
0.000384822
0.000144075
3.13879e-05
1e-05
1e-05
1e-05
1e-05
1e-05
1e-05
1e-05
1e-05
1e-05
1e-05
1e-05
1e-05
1e-05
1e-05
1e-05
1e-05
1e-05
1e-05
1e-05
1e-05
1e-05
1e-05
1e-05
1e-05
1e-05
1e-05
1e-05
1e-05
1e-05
1e-05
1e-05
1e-05
1e-05
1e-05
1e-05
1e-05
1e-05
1e-05
1e-05
1e-05
1e-05
1e-05
1e-05
1e-05
1e-05
1e-05
1e-05
1e-05
1e-05
1e-05
1e-05
1e-05
1e-05
1e-05
1e-05
1e-05
1e-05
1e-05
3.44224e-05
0.000144381
0.000368546
0.000692413
0.00108893
0.00153408
0.00201023
0.00250618
0.00301748
0.00354813
0.00411363
0.00474488
0.0054905
0.0064142
0.00758258
0.00904111
0.010781
0.0127144
0.0146736
0.0164268
0.0177131
0.0183097
0.018107
0.0171507
0.0156245
0.0137842
0.011882
0.0101152
0.00859936
0.0073615
0.00636299
0.00553717
0.00481883
0.00415914
0.00352885
0.00291529
0.00231785
0.00174472
0.00121163
0.000742235
0.000368489
0.00012494
2.3221e-05
1e-05
1e-05
1e-05
1e-05
1e-05
1e-05
1e-05
1e-05
1e-05
1e-05
1e-05
1e-05
1e-05
1e-05
1e-05
1e-05
1e-05
1e-05
1e-05
1e-05
1e-05
1e-05
1e-05
1e-05
1e-05
1e-05
1e-05
1e-05
1e-05
1e-05
1e-05
1e-05
1e-05
1e-05
1e-05
1e-05
1e-05
1e-05
1e-05
1e-05
1e-05
1e-05
1e-05
1e-05
1e-05
1e-05
1e-05
1e-05
1e-05
1e-05
1e-05
1e-05
1e-05
1e-05
1e-05
1e-05
2.58513e-05
0.000130354
0.000368177
0.000725605
0.00117028
0.00167324
0.00221384
0.00278
0.00336932
0.00399354
0.00468781
0.00552537
0.00663548
0.00821658
0.0105298
0.0138541
0.0183892
0.0241147
0.0306858
0.0374588
0.0435582
0.0479986
0.0499356
0.0489594
0.0452588
0.0395537
0.0328358
0.0260775
0.0200462
0.0151961
0.0116133
0.00910894
0.00738542
0.00615797
0.00521259
0.00441394
0.00368861
0.00300367
0.00235015
0.00173344
0.00116933
0.000683653
0.000311868
8.9399e-05
1.42107e-05
1e-05
1e-05
1e-05
1e-05
1e-05
1e-05
1e-05
1e-05
1e-05
1e-05
1e-05
1e-05
1e-05
1e-05
1e-05
1e-05
1e-05
1e-05
1e-05
1e-05
1e-05
1e-05
1e-05
1e-05
1e-05
1e-05
1e-05
1e-05
1e-05
1e-05
1e-05
1e-05
1e-05
1e-05
1e-05
1e-05
1e-05
1e-05
1e-05
1e-05
1e-05
1e-05
1e-05
1e-05
1e-05
1e-05
1e-05
1e-05
1e-05
1e-05
1e-05
1e-05
1e-05
1e-05
1.47635e-05
9.35284e-05
0.000319186
0.000689349
0.0011675
0.00171849
0.00231728
0.00294983
0.0036153
0.00433449
0.0051697
0.00626216
0.00789165
0.0105516
0.0150087
0.0222807
0.0334518
0.0492754
0.0695678
0.0928213
0.11655
0.137657
0.152816
0.159251
0.155639
0.14259
0.122463
0.0986016
0.0744289
0.0528613
0.0358256
0.0237664
0.0159548
0.0112028
0.00837519
0.00662837
0.00543458
0.00450533
0.00370064
0.00296137
0.00226927
0.00162728
0.00105212
0.000572864
0.000228694
5.11387e-05
1.0011e-05
1e-05
1e-05
1e-05
1e-05
1e-05
1e-05
1e-05
1e-05
1e-05
1e-05
1e-05
1e-05
1e-05
1e-05
1e-05
1e-05
1e-05
1e-05
1e-05
1e-05
1e-05
1e-05
1e-05
1e-05
1e-05
1e-05
1e-05
1e-05
1e-05
1e-05
1e-05
1e-05
1e-05
1e-05
1e-05
1e-05
1e-05
1e-05
1e-05
1e-05
1e-05
1e-05
1e-05
1e-05
1e-05
1e-05
1e-05
1e-05
1e-05
1e-05
1e-05
1e-05
1e-05
5.01256e-05
0.000233191
0.000588343
0.00107974
0.00166481
0.00231214
0.00300391
0.00373901
0.0045456
0.00551444
0.00687194
0.00912015
0.0132648
0.0211049
0.035438
0.0598625
0.097803
0.150762
0.215978
0.285894
0.351834
0.406225
0.442936
0.45786
0.449235
0.417647
0.366216
0.300635
0.228715
0.159909
0.103149
0.0624047
0.0364252
0.0214334
0.0133783
0.00916452
0.00686682
0.00545155
0.00442306
0.00356553
0.00279472
0.00208519
0.00143914
0.000875744
0.000428542
0.000138922
2.307e-05
1e-05
1e-05
1e-05
1e-05
1e-05
1e-05
1e-05
1e-05
1e-05
1e-05
1e-05
1e-05
1e-05
1e-05
1e-05
1e-05
1e-05
1e-05
1e-05
1e-05
1e-05
1e-05
1e-05
1e-05
1e-05
1e-05
1e-05
1e-05
1e-05
1e-05
1e-05
1e-05
1e-05
1e-05
1e-05
1e-05
1e-05
1e-05
1e-05
1e-05
1e-05
1e-05
1e-05
1e-05
1e-05
1e-05
1e-05
1e-05
1e-05
1e-05
1e-05
1e-05
1.90498e-05
0.000133305
0.000438588
0.000915549
0.00151511
0.00219706
0.00293725
0.00373112
0.00460885
0.00568063
0.00724978
0.0100649
0.015815
0.0279353
0.0525182
0.098412
0.174677
0.284118
0.416904
0.549337
0.655754
0.728589
0.773991
0.799254
0.808561
0.803216
0.782068
0.741069
0.672661
0.568908
0.434314
0.295001
0.178997
0.098795
0.0515322
0.0269013
0.015063
0.0095252
0.0067998
0.00524856
0.00417261
0.00329616
0.00251995
0.00181632
0.0011895
0.000663152
0.000275962
6.54861e-05
1.075e-05
1e-05
1e-05
1e-05
1e-05
1e-05
1e-05
1e-05
1e-05
1e-05
1e-05
1e-05
1e-05
1e-05
1e-05
1e-05
1e-05
1e-05
1e-05
1e-05
1e-05
1e-05
1e-05
1e-05
1e-05
1e-05
1e-05
1e-05
1e-05
1e-05
1e-05
1e-05
1e-05
1e-05
1e-05
1e-05
1e-05
1e-05
1e-05
1e-05
1e-05
1e-05
1e-05
1e-05
1e-05
1e-05
1e-05
1e-05
1e-05
1e-05
1e-05
1e-05
5.2492e-05
0.000268961
0.000694233
0.0012809
0.00197807
0.00275192
0.00359051
0.00451854
0.00564762
0.00731797
0.0104574
0.017403
0.033513
0.0695003
0.142371
0.268493
0.442808
0.621288
0.755995
0.841788
0.892872
0.92233
0.938931
0.947628
0.950757
0.949019
0.941844
0.927058
0.899829
0.851147
0.766833
0.630605
0.445981
0.264883
0.136397
0.0646534
0.0304871
0.0156203
0.0092897
0.00640515
0.00484069
0.00377676
0.00291663
0.00216155
0.00148785
0.000904884
0.000442689
0.000142976
2.3721e-05
1e-05
1e-05
1e-05
1e-05
1e-05
1e-05
1e-05
1e-05
1e-05
1e-05
1e-05
1e-05
1e-05
1e-05
1e-05
1e-05
1e-05
1e-05
1e-05
1e-05
1e-05
1e-05
1e-05
1e-05
1e-05
1e-05
1e-05
1e-05
1e-05
1e-05
1e-05
1e-05
1e-05
1e-05
1e-05
1e-05
1e-05
1e-05
1e-05
1e-05
1e-05
1e-05
1e-05
1e-05
1e-05
1e-05
1e-05
1e-05
1e-05
1e-05
1.42572e-05
0.000118841
0.000447302
0.000983656
0.00166919
0.00245717
0.0033241
0.00428197
0.00542429
0.00707118
0.0101802
0.0174165
0.0356133
0.080138
0.177686
0.351118
0.571144
0.753322
0.865023
0.925315
0.956856
0.973506
0.982404
0.9872
0.989659
0.990555
0.990112
0.988142
0.983921
0.975732
0.95988
0.928832
0.867623
0.751226
0.559377
0.332494
0.161797
0.0706075
0.0306765
0.0147571
0.00846384
0.00573226
0.00427196
0.00327188
0.00245909
0.0017499
0.00112989
0.000616379
0.000246198
5.46639e-05
1.02904e-05
1e-05
1e-05
1e-05
1e-05
1e-05
1e-05
1e-05
1e-05
1e-05
1e-05
1e-05
1e-05
1e-05
1e-05
1e-05
1e-05
1e-05
1e-05
1e-05
1e-05
1e-05
1e-05
1e-05
1e-05
1e-05
1e-05
1e-05
1e-05
1e-05
1e-05
1e-05
1e-05
1e-05
1e-05
1e-05
1e-05
1e-05
1e-05
1e-05
1e-05
1e-05
1e-05
1e-05
1e-05
1e-05
1e-05
1e-05
1e-05
1e-05
3.17672e-05
0.000220348
0.000657164
0.00129392
0.00206977
0.00294565
0.00391562
0.00504176
0.00657684
0.00934788
0.0158688
0.0332744
0.0796297
0.190415
0.396887
0.64456
0.822314
0.916283
0.96065
0.98116
0.990763
0.995354
0.997516
0.998615
0.999173
0.999387
0.99931
0.998895
0.997957
0.995999
0.991666
0.98211
0.96086
0.913382
0.810701
0.617246
0.361399
0.165317
0.0669761
0.0273787
0.0127253
0.00722705
0.00488106
0.00360215
0.00270105
0.00195992
0.00131874
0.000775695
0.000357609
0.000103206
1.67312e-05
1e-05
1e-05
1e-05
1e-05
1e-05
1e-05
1e-05
1e-05
1e-05
1e-05
1e-05
1e-05
1e-05
1e-05
1e-05
1e-05
1e-05
1e-05
1e-05
1e-05
1e-05
1e-05
1e-05
1e-05
1e-05
1e-05
1e-05
1e-05
1e-05
1e-05
1e-05
1e-05
1e-05
1e-05
1e-05
1e-05
1e-05
1e-05
1e-05
1e-05
1e-05
1e-05
1e-05
1e-05
1e-05
1e-05
1e-05
1e-05
1e-05
6.67001e-05
0.000350291
0.000887788
0.00161522
0.00247516
0.00344041
0.00453705
0.00593082
0.00822316
0.0133914
0.027566
0.0681295
0.175031
0.394446
0.666355
0.850506
0.938476
0.975514
0.990604
0.996681
0.999014
0.999869
0.9999
0.9999
0.9999
0.9999
0.9999
0.9999
0.9999
0.9999
0.999224
0.996903
0.990411
0.973613
0.931424
0.830491
0.624673
0.346703
0.146752
0.0556703
0.0219104
0.0101283
0.00582572
0.00395964
0.00289131
0.00210779
0.00145648
0.000903157
0.000459996
0.000161438
3.09482e-05
1e-05
1e-05
1e-05
1e-05
1e-05
1e-05
1e-05
1e-05
1e-05
1e-05
1e-05
1e-05
1e-05
1e-05
1e-05
1e-05
1e-05
1e-05
1e-05
1e-05
1e-05
1e-05
1e-05
1e-05
1e-05
1e-05
1e-05
1e-05
1e-05
1e-05
1e-05
1e-05
1e-05
1e-05
1e-05
1e-05
1e-05
1e-05
1e-05
1e-05
1e-05
1e-05
1e-05
1e-05
1e-05
1e-05
1e-05
1e-05
1.27518e-05
0.00012149
0.00050042
0.00112994
0.00193984
0.0028798
0.00394135
0.00520914
0.00705229
0.0107817
0.0207764
0.050736
0.137623
0.343563
0.639459
0.849125
0.944381
0.980988
0.9942
0.99864
0.9999
0.9999
0.9999
0.999663
0.999428
0.999273
0.999203
0.999219
0.999328
0.99954
0.999823
0.9999
0.9999
0.998498
0.993144
0.977195
0.933218
0.820611
0.586383
0.295
0.114372
0.0412064
0.0160077
0.00755074
0.00446055
0.00305312
0.00219076
0.00153266
0.000985272
0.000538392
0.000216925
5.07092e-05
1.07688e-05
1e-05
1e-05
1e-05
1e-05
1e-05
1e-05
1e-05
1e-05
1e-05
1e-05
1e-05
1e-05
1e-05
1e-05
1e-05
1e-05
1e-05
1e-05
1e-05
1e-05
1e-05
1e-05
1e-05
1e-05
1e-05
1e-05
1e-05
1e-05
1e-05
1e-05
1e-05
1e-05
1e-05
1e-05
1e-05
1e-05
1e-05
1e-05
1e-05
1e-05
1e-05
1e-05
1e-05
1e-05
1e-05
1e-05
1e-05
2.22293e-05
0.000196166
0.000664422
0.00137659
0.00226154
0.00327915
0.00445057
0.00596269
0.00855499
0.0148649
0.0338189
0.0929402
0.256388
0.558481
0.816949
0.937101
0.980774
0.995115
0.999211
0.9999
0.9999
0.99951
0.999157
0.998802
0.998504
0.998302
0.998203
0.998212
0.998335
0.998581
0.998939
0.999349
0.999838
0.9999
0.998679
0.993001
0.974752
0.921374
0.780798
0.504228
0.222262
0.0794287
0.0277303
0.01089
0.00533327
0.00324252
0.00221686
0.00154193
0.00101244
0.000581127
0.000257934
7.12817e-05
1.38732e-05
1e-05
1e-05
1e-05
1e-05
1e-05
1e-05
1e-05
1e-05
1e-05
1e-05
1e-05
1e-05
1e-05
1e-05
1e-05
1e-05
1e-05
1e-05
1e-05
1e-05
1e-05
1e-05
1e-05
1e-05
1e-05
1e-05
1e-05
1e-05
1e-05
1e-05
1e-05
1e-05
1e-05
1e-05
1e-05
1e-05
1e-05
1e-05
1e-05
1e-05
1e-05
1e-05
1e-05
1e-05
1e-05
1e-05
1e-05
3.99814e-05
0.000286944
0.000836628
0.0016219
0.00257467
0.00366876
0.00497064
0.00683339
0.0106157
0.0212112
0.0552389
0.161322
0.420238
0.739667
0.911943
0.974529
0.994063
0.999209
0.9999
0.999703
0.999253
0.998719
0.998243
0.997832
0.997506
0.997278
0.997158
0.997149
0.997258
0.997493
0.997855
0.998339
0.998944
0.999499
0.999611
0.997867
0.99044
0.966003
0.892602
0.703692
0.387603
0.149196
0.0501608
0.0173329
0.0070002
0.00357219
0.0022115
0.00148553
0.000979151
0.000580314
0.000275584
8.64479e-05
1.78339e-05
1e-05
1e-05
1e-05
1e-05
1e-05
1e-05
1e-05
1e-05
1e-05
1e-05
1e-05
1e-05
1e-05
1e-05
1e-05
1e-05
1e-05
1e-05
1e-05
1e-05
1e-05
1e-05
1e-05
1e-05
1e-05
1e-05
1e-05
1e-05
1e-05
1e-05
1e-05
1e-05
1e-05
1e-05
1e-05
1e-05
1e-05
1e-05
1e-05
1e-05
1e-05
1e-05
1e-05
1e-05
1e-05
1e-05
1e-05
6.70594e-05
0.000388359
0.00101107
0.0018601
0.00287335
0.00404328
0.00550159
0.00784949
0.0133885
0.0304747
0.0871811
0.257228
0.591632
0.852926
0.957394
0.989971
0.998592
0.9999
0.999705
0.999123
0.998483
0.997872
0.997339
0.996892
0.996539
0.996287
0.996142
0.996109
0.996192
0.996398
0.996733
0.9972
0.997795
0.998455
0.998989
0.998751
0.995892
0.984734
0.947872
0.837959
0.581233
0.263222
0.0909019
0.029447
0.0102202
0.00425451
0.00222992
0.00137462
0.000884735
0.000532058
0.000264435
9.06599e-05
2.04237e-05
1e-05
1e-05
1e-05
1e-05
1.02064e-05
1.12087e-05
1.30157e-05
1.53829e-05
1.78223e-05
1.97157e-05
2.04972e-05
1.98522e-05
1.78627e-05
1.50405e-05
1.22214e-05
1.03211e-05
1e-05
1e-05
1e-05
1e-05
1e-05
1e-05
1e-05
1e-05
1e-05
1e-05
1e-05
1e-05
1e-05
1e-05
1e-05
1e-05
1e-05
1e-05
1e-05
1e-05
1e-05
1e-05
1e-05
1e-05
1e-05
1e-05
1e-05
1e-05
1e-05
1e-05
1.06767e-05
0.000103455
0.000495043
0.00118171
0.00208511
0.00315106
0.00439548
0.00603654
0.00901235
0.0169226
0.0428908
0.129875
0.372033
0.725207
0.915206
0.978711
0.996287
0.9999
0.9999
0.999254
0.998481
0.99774
0.997073
0.996496
0.996015
0.995632
0.995352
0.995178
0.995114
0.995164
0.995333
0.995625
0.996044
0.996587
0.997225
0.997862
0.998189
0.997286
0.992244
0.973787
0.913584
0.743585
0.422532
0.160402
0.0515289
0.0163427
0.00568307
0.00238181
0.00123721
0.000735186
0.000437294
0.000223373
8.11727e-05
2.00725e-05
1.02121e-05
1.30248e-05
1.93978e-05
2.9711e-05
4.46228e-05
6.39258e-05
8.63593e-05
0.00010971
0.000131149
0.000147727
0.000156881
0.000156886
0.000147211
0.000128752
0.000103901
7.62941e-05
5.00824e-05
2.89684e-05
1.54967e-05
1.00939e-05
1e-05
1e-05
1e-05
1e-05
1e-05
1e-05
1e-05
1e-05
1e-05
1e-05
1e-05
1e-05
1e-05
1e-05
1e-05
1e-05
1e-05
1e-05
1e-05
1e-05
1e-05
1e-05
1e-05
1e-05
1e-05
1e-05
1.41921e-05
0.000148072
0.000602177
0.00134271
0.00229066
0.00340062
0.00471565
0.00655743
0.0102745
0.0210633
0.0578727
0.180361
0.488581
0.812318
0.948279
0.988833
0.998763
0.9999
0.999526
0.998722
0.997861
0.997059
0.996345
0.995727
0.995209
0.994792
0.994478
0.99427
0.994171
0.994183
0.994309
0.994552
0.994913
0.995391
0.995969
0.996595
0.997116
0.997055
0.994888
0.985634
0.953233
0.851358
0.598786
0.26937
0.0904912
0.0277716
0.00859216
0.00288185
0.00113337
0.000547619
0.000304217
0.000157739
6.13232e-05
2.2442e-05
2.60825e-05
4.89072e-05
8.46204e-05
0.000132768
0.000191787
0.000258137