# vtk DataFile Version 2.0
time_10.vtk
ASCII
DATASET STRUCTURED_GRID
DIMENSIONS 100 100 1
POINTS 10000 float
-0.4 -0.4 0
-0.4 0 0
-0.4 0.4 0
-0.4 0.8 0
-0.4 1.2 0
-0.4 1.6 0
-0.4 2 0
-0.4 2.4 0
-0.4 2.8 0
-0.4 3.2 0
-0.4 3.6 0
-0.4 4 0
-0.4 4.4 0
-0.4 4.8 0
-0.4 5.2 0
-0.4 5.6 0
-0.4 6 0
-0.4 6.4 0
-0.4 6.8 0
-0.4 7.2 0
-0.4 7.6 0
-0.4 8 0
-0.4 8.4 0
-0.4 8.8 0
-0.4 9.2 0
-0.4 9.6 0
-0.4 10 0
-0.4 10.4 0
-0.4 10.8 0
-0.4 11.2 0
-0.4 11.6 0
-0.4 12 0
-0.4 12.4 0
-0.4 12.8 0
-0.4 13.2 0
-0.4 13.6 0
-0.4 14 0
-0.4 14.4 0
-0.4 14.8 0
-0.4 15.2 0
-0.4 15.6 0
-0.4 16 0
-0.4 16.4 0
-0.4 16.8 0
-0.4 17.2 0
-0.4 17.6 0
-0.4 18 0
-0.4 18.4 0
-0.4 18.8 0
-0.4 19.2 0
-0.4 19.6 0
-0.4 20 0
-0.4 20.4 0
-0.4 20.8 0
-0.4 21.2 0
-0.4 21.6 0
-0.4 22 0
-0.4 22.4 0
-0.4 22.8 0
-0.4 23.2 0
-0.4 23.6 0
-0.4 24 0
-0.4 24.4 0
-0.4 24.8 0
-0.4 25.2 0
-0.4 25.6 0
-0.4 26 0
-0.4 26.4 0
-0.4 26.8 0
-0.4 27.2 0
-0.4 27.6 0
-0.4 28 0
-0.4 28.4 0
-0.4 28.8 0
-0.4 29.2 0
-0.4 29.6 0
-0.4 30 0
-0.4 30.4 0
-0.4 30.8 0
-0.4 31.2 0
-0.4 31.6 0
-0.4 32 0
-0.4 32.4 0
-0.4 32.8 0
-0.4 33.2 0
-0.4 33.6 0
-0.4 34 0
-0.4 34.4 0
-0.4 34.8 0
-0.4 35.2 0
-0.4 35.6 0
-0.4 36 0
-0.4 36.4 0
-0.4 36.8 0
-0.4 37.2 0
-0.4 37.6 0
-0.4 38 0
-0.4 38.4 0
-0.4 38.8 0
-0.4 39.2 0
0 -0.4 0
0 0 0
0 0.4 0
0 0.8 0
0 1.2 0
0 1.6 0
0 2 0
0 2.4 0
0 2.8 0
0 3.2 0
0 3.6 0
0 4 0
0 4.4 0
0 4.8 0
0 5.2 0
0 5.6 0
0 6 0
0 6.4 0
0 6.8 0
0 7.2 0
0 7.6 0
0 8 0
0 8.4 0
0 8.8 0
0 9.2 0
0 9.6 0
0 10 0
0 10.4 0
0 10.8 0
0 11.2 0
0 11.6 0
0 12 0
0 12.4 0
0 12.8 0
0 13.2 0
0 13.6 0
0 14 0
0 14.4 0
0 14.8 0
0 15.2 0
0 15.6 0
0 16 0
0 16.4 0
0 16.8 0
0 17.2 0
0 17.6 0
0 18 0
0 18.4 0
0 18.8 0
0 19.2 0
0 19.6 0
0 20 0
0 20.4 0
0 20.8 0
0 21.2 0
0 21.6 0
0 22 0
0 22.4 0
0 22.8 0
0 23.2 0
0 23.6 0
0 24 0
0 24.4 0
0 24.8 0
0 25.2 0
0 25.6 0
0 26 0
0 26.4 0
0 26.8 0
0 27.2 0
0 27.6 0
0 28 0
0 28.4 0
0 28.8 0
0 29.2 0
0 29.6 0
0 30 0
0 30.4 0
0 30.8 0
0 31.2 0
0 31.6 0
0 32 0
0 32.4 0
0 32.8 0
0 33.2 0
0 33.6 0
0 34 0
0 34.4 0
0 34.8 0
0 35.2 0
0 35.6 0
0 36 0
0 36.4 0
0 36.8 0
0 37.2 0
0 37.6 0
0 38 0
0 38.4 0
0 38.8 0
0 39.2 0
0.4 -0.4 0
0.4 0 0
0.4 0.4 0
0.4 0.8 0
0.4 1.2 0
0.4 1.6 0
0.4 2 0
0.4 2.4 0
0.4 2.8 0
0.4 3.2 0
0.4 3.6 0
0.4 4 0
0.4 4.4 0
0.4 4.8 0
0.4 5.2 0
0.4 5.6 0
0.4 6 0
0.4 6.4 0
0.4 6.8 0
0.4 7.2 0
0.4 7.6 0
0.4 8 0
0.4 8.4 0
0.4 8.8 0
0.4 9.2 0
0.4 9.6 0
0.4 10 0
0.4 10.4 0
0.4 10.8 0
0.4 11.2 0
0.4 11.6 0
0.4 12 0
0.4 12.4 0
0.4 12.8 0
0.4 13.2 0
0.4 13.6 0
0.4 14 0
0.4 14.4 0
0.4 14.8 0
0.4 15.2 0
0.4 15.6 0
0.4 16 0
0.4 16.4 0
0.4 16.8 0
0.4 17.2 0
0.4 17.6 0
0.4 18 0
0.4 18.4 0
0.4 18.8 0
0.4 19.2 0
0.4 19.6 0
0.4 20 0
0.4 20.4 0
0.4 20.8 0
0.4 21.2 0
0.4 21.6 0
0.4 22 0
0.4 22.4 0
0.4 22.8 0
0.4 23.2 0
0.4 23.6 0
0.4 24 0
0.4 24.4 0
0.4 24.8 0
0.4 25.2 0
0.4 25.6 0
0.4 26 0
0.4 26.4 0
0.4 26.8 0
0.4 27.2 0
0.4 27.6 0
0.4 28 0
0.4 28.4 0
0.4 28.8 0
0.4 29.2 0
0.4 29.6 0
0.4 30 0
0.4 30.4 0
0.4 30.8 0
0.4 31.2 0
0.4 31.6 0
0.4 32 0
0.4 32.4 0
0.4 32.8 0
0.4 33.2 0
0.4 33.6 0
0.4 34 0
0.4 34.4 0
0.4 34.8 0
0.4 35.2 0
0.4 35.6 0
0.4 36 0
0.4 36.4 0
0.4 36.8 0
0.4 37.2 0
0.4 37.6 0
0.4 38 0
0.4 38.4 0
0.4 38.8 0
0.4 39.2 0
0.8 -0.4 0
0.8 0 0
0.8 0.4 0
0.8 0.8 0
0.8 1.2 0
0.8 1.6 0
0.8 2 0
0.8 2.4 0
0.8 2.8 0
0.8 3.2 0
0.8 3.6 0
0.8 4 0
0.8 4.4 0
0.8 4.8 0
0.8 5.2 0
0.8 5.6 0
0.8 6 0
0.8 6.4 0
0.8 6.8 0
0.8 7.2 0
0.8 7.6 0
0.8 8 0
0.8 8.4 0
0.8 8.8 0
0.8 9.2 0
0.8 9.6 0
0.8 10 0
0.8 10.4 0
0.8 10.8 0
0.8 11.2 0
0.8 11.6 0
0.8 12 0
0.8 12.4 0
0.8 12.8 0
0.8 13.2 0
0.8 13.6 0
0.8 14 0
0.8 14.4 0
0.8 14.8 0
0.8 15.2 0
0.8 15.6 0
0.8 16 0
0.8 16.4 0
0.8 16.8 0
0.8 17.2 0
0.8 17.6 0
0.8 18 0
0.8 18.4 0
0.8 18.8 0
0.8 19.2 0
0.8 19.6 0
0.8 20 0
0.8 20.4 0
0.8 20.8 0
0.8 21.2 0
0.8 21.6 0
0.8 22 0
0.8 22.4 0
0.8 22.8 0
0.8 23.2 0
0.8 23.6 0
0.8 24 0
0.8 24.4 0
0.8 24.8 0
0.8 25.2 0
0.8 25.6 0
0.8 26 0
0.8 26.4 0
0.8 26.8 0
0.8 27.2 0
0.8 27.6 0
0.8 28 0
0.8 28.4 0
0.8 28.8 0
0.8 29.2 0
0.8 29.6 0
0.8 30 0
0.8 30.4 0
0.8 30.8 0
0.8 31.2 0
0.8 31.6 0
0.8 32 0
0.8 32.4 0
0.8 32.8 0
0.8 33.2 0
0.8 33.6 0
0.8 34 0
0.8 34.4 0
0.8 34.8 0
0.8 35.2 0
0.8 35.6 0
0.8 36 0
0.8 36.4 0
0.8 36.8 0
0.8 37.2 0
0.8 37.6 0
0.8 38 0
0.8 38.4 0
0.8 38.8 0
0.8 39.2 0
1.2 -0.4 0
1.2 0 0
1.2 0.4 0
1.2 0.8 0
1.2 1.2 0
1.2 1.6 0
1.2 2 0
1.2 2.4 0
1.2 2.8 0
1.2 3.2 0
1.2 3.6 0
1.2 4 0
1.2 4.4 0
1.2 4.8 0
1.2 5.2 0
1.2 5.6 0
1.2 6 0
1.2 6.4 0
1.2 6.8 0
1.2 7.2 0
1.2 7.6 0
1.2 8 0
1.2 8.4 0
1.2 8.8 0
1.2 9.2 0
1.2 9.6 0
1.2 10 0
1.2 10.4 0
1.2 10.8 0
1.2 11.2 0
1.2 11.6 0
1.2 12 0
1.2 12.4 0
1.2 12.8 0
1.2 13.2 0
1.2 13.6 0
1.2 14 0
1.2 14.4 0
1.2 14.8 0
1.2 15.2 0
1.2 15.6 0
1.2 16 0
1.2 16.4 0
1.2 16.8 0
1.2 17.2 0
1.2 17.6 0
1.2 18 0
1.2 18.4 0
1.2 18.8 0
1.2 19.2 0
1.2 19.6 0
1.2 20 0
1.2 20.4 0
1.2 20.8 0
1.2 21.2 0
1.2 21.6 0
1.2 22 0
1.2 22.4 0
1.2 22.8 0
1.2 23.2 0
1.2 23.6 0
1.2 24 0
1.2 24.4 0
1.2 24.8 0
1.2 25.2 0
1.2 25.6 0
1.2 26 0
1.2 26.4 0
1.2 26.8 0
1.2 27.2 0
1.2 27.6 0
1.2 28 0
1.2 28.4 0
1.2 28.8 0
1.2 29.2 0
1.2 29.6 0
1.2 30 0
1.2 30.4 0
1.2 30.8 0
1.2 31.2 0
1.2 31.6 0
1.2 32 0
1.2 32.4 0
1.2 32.8 0
1.2 33.2 0
1.2 33.6 0
1.2 34 0
1.2 34.4 0
1.2 34.8 0
1.2 35.2 0
1.2 35.6 0
1.2 36 0
1.2 36.4 0
1.2 36.8 0
1.2 37.2 0
1.2 37.6 0
1.2 38 0
1.2 38.4 0
1.2 38.8 0
1.2 39.2 0
1.6 -0.4 0
1.6 0 0
1.6 0.4 0
1.6 0.8 0
1.6 1.2 0
1.6 1.6 0
1.6 2 0
1.6 2.4 0
1.6 2.8 0
1.6 3.2 0
1.6 3.6 0
1.6 4 0
1.6 4.4 0
1.6 4.8 0
1.6 5.2 0
1.6 5.6 0
1.6 6 0
1.6 6.4 0
1.6 6.8 0
1.6 7.2 0
1.6 7.6 0
1.6 8 0
1.6 8.4 0
1.6 8.8 0
1.6 9.2 0
1.6 9.6 0
1.6 10 0
1.6 10.4 0
1.6 10.8 0
1.6 11.2 0
1.6 11.6 0
1.6 12 0
1.6 12.4 0
1.6 12.8 0
1.6 13.2 0
1.6 13.6 0
1.6 14 0
1.6 14.4 0
1.6 14.8 0
1.6 15.2 0
1.6 15.6 0
1.6 16 0
1.6 16.4 0
1.6 16.8 0
1.6 17.2 0
1.6 17.6 0
1.6 18 0
1.6 18.4 0
1.6 18.8 0
1.6 19.2 0
1.6 19.6 0
1.6 20 0
1.6 20.4 0
1.6 20.8 0
1.6 21.2 0
1.6 21.6 0
1.6 22 0
1.6 22.4 0
1.6 22.8 0
1.6 23.2 0
1.6 23.6 0
1.6 24 0
1.6 24.4 0
1.6 24.8 0
1.6 25.2 0
1.6 25.6 0
1.6 26 0
1.6 26.4 0
1.6 26.8 0
1.6 27.2 0
1.6 27.6 0
1.6 28 0
1.6 28.4 0
1.6 28.8 0
1.6 29.2 0
1.6 29.6 0
1.6 30 0
1.6 30.4 0
1.6 30.8 0
1.6 31.2 0
1.6 31.6 0
1.6 32 0
1.6 32.4 0
1.6 32.8 0
1.6 33.2 0
1.6 33.6 0
1.6 34 0
1.6 34.4 0
1.6 34.8 0
1.6 35.2 0
1.6 35.6 0
1.6 36 0
1.6 36.4 0
1.6 36.8 0
1.6 37.2 0
1.6 37.6 0
1.6 38 0
1.6 38.4 0
1.6 38.8 0
1.6 39.2 0
2 -0.4 0
2 0 0
2 0.4 0
2 0.8 0
2 1.2 0
2 1.6 0
2 2 0
2 2.4 0
2 2.8 0
2 3.2 0
2 3.6 0
2 4 0
2 4.4 0
2 4.8 0
2 5.2 0
2 5.6 0
2 6 0
2 6.4 0
2 6.8 0
2 7.2 0
2 7.6 0
2 8 0
2 8.4 0
2 8.8 0
2 9.2 0
2 9.6 0
2 10 0
2 10.4 0
2 10.8 0
2 11.2 0
2 11.6 0
2 12 0
2 12.4 0
2 12.8 0
2 13.2 0
2 13.6 0
2 14 0
2 14.4 0
2 14.8 0
2 15.2 0
2 15.6 0
2 16 0
2 16.4 0
2 16.8 0
2 17.2 0
2 17.6 0
2 18 0
2 18.4 0
2 18.8 0
2 19.2 0
2 19.6 0
2 20 0
2 20.4 0
2 20.8 0
2 21.2 0
2 21.6 0
2 22 0
2 22.4 0
2 22.8 0
2 23.2 0
2 23.6 0
2 24 0
2 24.4 0
2 24.8 0
2 25.2 0
2 25.6 0
2 26 0
2 26.4 0
2 26.8 0
2 27.2 0
2 27.6 0
2 28 0
2 28.4 0
2 28.8 0
2 29.2 0
2 29.6 0
2 30 0
2 30.4 0
2 30.8 0
2 31.2 0
2 31.6 0
2 32 0
2 32.4 0
2 32.8 0
2 33.2 0
2 33.6 0
2 34 0
2 34.4 0
2 34.8 0
2 35.2 0
2 35.6 0
2 36 0
2 36.4 0
2 36.8 0
2 37.2 0
2 37.6 0
2 38 0
2 38.4 0
2 38.8 0
2 39.2 0
2.4 -0.4 0
2.4 0 0
2.4 0.4 0
2.4 0.8 0
2.4 1.2 0
2.4 1.6 0
2.4 2 0
2.4 2.4 0
2.4 2.8 0
2.4 3.2 0
2.4 3.6 0
2.4 4 0
2.4 4.4 0
2.4 4.8 0
2.4 5.2 0
2.4 5.6 0
2.4 6 0
2.4 6.4 0
2.4 6.8 0
2.4 7.2 0
2.4 7.6 0
2.4 8 0
2.4 8.4 0
2.4 8.8 0
2.4 9.2 0
2.4 9.6 0
2.4 10 0
2.4 10.4 0
2.4 10.8 0
2.4 11.2 0
2.4 11.6 0
2.4 12 0
2.4 12.4 0
2.4 12.8 0
2.4 13.2 0
2.4 13.6 0
2.4 14 0
2.4 14.4 0
2.4 14.8 0
2.4 15.2 0
2.4 15.6 0
2.4 16 0
2.4 16.4 0
2.4 16.8 0
2.4 17.2 0
2.4 17.6 0
2.4 18 0
2.4 18.4 0
2.4 18.8 0
2.4 19.2 0
2.4 19.6 0
2.4 20 0
2.4 20.4 0
2.4 20.8 0
2.4 21.2 0
2.4 21.6 0
2.4 22 0
2.4 22.4 0
2.4 22.8 0
2.4 23.2 0
2.4 23.6 0
2.4 24 0
2.4 24.4 0
2.4 24.8 0
2.4 25.2 0
2.4 25.6 0
2.4 26 0
2.4 26.4 0
2.4 26.8 0
2.4 27.2 0
2.4 27.6 0
2.4 28 0
2.4 28.4 0
2.4 28.8 0
2.4 29.2 0
2.4 29.6 0
2.4 30 0
2.4 30.4 0
2.4 30.8 0
2.4 31.2 0
2.4 31.6 0
2.4 32 0
2.4 32.4 0
2.4 32.8 0
2.4 33.2 0
2.4 33.6 0
2.4 34 0
2.4 34.4 0
2.4 34.8 0
2.4 35.2 0
2.4 35.6 0
2.4 36 0
2.4 36.4 0
2.4 36.8 0
2.4 37.2 0
2.4 37.6 0
2.4 38 0
2.4 38.4 0
2.4 38.8 0
2.4 39.2 0
2.8 -0.4 0
2.8 0 0
2.8 0.4 0
2.8 0.8 0
2.8 1.2 0
2.8 1.6 0
2.8 2 0
2.8 2.4 0
2.8 2.8 0
2.8 3.2 0
2.8 3.6 0
2.8 4 0
2.8 4.4 0
2.8 4.8 0
2.8 5.2 0
2.8 5.6 0
2.8 6 0
2.8 6.4 0
2.8 6.8 0
2.8 7.2 0
2.8 7.6 0
2.8 8 0
2.8 8.4 0
2.8 8.8 0
2.8 9.2 0
2.8 9.6 0
2.8 10 0
2.8 10.4 0
2.8 10.8 0
2.8 11.2 0
2.8 11.6 0
2.8 12 0
2.8 12.4 0
2.8 12.8 0
2.8 13.2 0
2.8 13.6 0
2.8 14 0
2.8 14.4 0
2.8 14.8 0
2.8 15.2 0
2.8 15.6 0
2.8 16 0
2.8 16.4 0
2.8 16.8 0
2.8 17.2 0
2.8 17.6 0
2.8 18 0
2.8 18.4 0
2.8 18.8 0
2.8 19.2 0
2.8 19.6 0
2.8 20 0
2.8 20.4 0
2.8 20.8 0
2.8 21.2 0
2.8 21.6 0
2.8 22 0
2.8 22.4 0
2.8 22.8 0
2.8 23.2 0
2.8 23.6 0
2.8 24 0
2.8 24.4 0
2.8 24.8 0
2.8 25.2 0
2.8 25.6 0
2.8 26 0
2.8 26.4 0
2.8 26.8 0
2.8 27.2 0
2.8 27.6 0
2.8 28 0
2.8 28.4 0
2.8 28.8 0
2.8 29.2 0
2.8 29.6 0
2.8 30 0
2.8 30.4 0
2.8 30.8 0
2.8 31.2 0
2.8 31.6 0
2.8 32 0
2.8 32.4 0
2.8 32.8 0
2.8 33.2 0
2.8 33.6 0
2.8 34 0
2.8 34.4 0
2.8 34.8 0
2.8 35.2 0
2.8 35.6 0
2.8 36 0
2.8 36.4 0
2.8 36.8 0
2.8 37.2 0
2.8 37.6 0
2.8 38 0
2.8 38.4 0
2.8 38.8 0
2.8 39.2 0
3.2 -0.4 0
3.2 0 0
3.2 0.4 0
3.2 0.8 0
3.2 1.2 0
3.2 1.6 0
3.2 2 0
3.2 2.4 0
3.2 2.8 0
3.2 3.2 0
3.2 3.6 0
3.2 4 0
3.2 4.4 0
3.2 4.8 0
3.2 5.2 0
3.2 5.6 0
3.2 6 0
3.2 6.4 0
3.2 6.8 0
3.2 7.2 0
3.2 7.6 0
3.2 8 0
3.2 8.4 0
3.2 8.8 0
3.2 9.2 0
3.2 9.6 0
3.2 10 0
3.2 10.4 0
3.2 10.8 0
3.2 11.2 0
3.2 11.6 0
3.2 12 0
3.2 12.4 0
3.2 12.8 0
3.2 13.2 0
3.2 13.6 0
3.2 14 0
3.2 14.4 0
3.2 14.8 0
3.2 15.2 0
3.2 15.6 0
3.2 16 0
3.2 16.4 0
3.2 16.8 0
3.2 17.2 0
3.2 17.6 0
3.2 18 0
3.2 18.4 0
3.2 18.8 0
3.2 19.2 0
3.2 19.6 0
3.2 20 0
3.2 20.4 0
3.2 20.8 0
3.2 21.2 0
3.2 21.6 0
3.2 22 0
3.2 22.4 0
3.2 22.8 0
3.2 23.2 0
3.2 23.6 0
3.2 24 0
3.2 24.4 0
3.2 24.8 0
3.2 25.2 0
3.2 25.6 0
3.2 26 0
3.2 26.4 0
3.2 26.8 0
3.2 27.2 0
3.2 27.6 0
3.2 28 0
3.2 28.4 0
3.2 28.8 0
3.2 29.2 0
3.2 29.6 0
3.2 30 0
3.2 30.4 0
3.2 30.8 0
3.2 31.2 0
3.2 31.6 0
3.2 32 0
3.2 32.4 0
3.2 32.8 0
3.2 33.2 0
[...]
POINT_DATA 10000
SCALARS CON float 1
LOOKUP_TABLE default
1e-05
1e-05
1e-05
1e-05
1e-05
1e-05
1e-05
1e-05
1e-05
1e-05
1e-05
1e-05
1e-05
1e-05
1e-05
1e-05
1e-05
1e-05
1e-05
1e-05
1e-05
1e-05
1e-05
1e-05
1e-05
1e-05
1e-05
1e-05
1e-05
1e-05
1e-05
1e-05
1e-05
1e-05
1e-05
1e-05
1e-05
1e-05
1e-05
1e-05
1e-05
1e-05
1e-05
1e-05
1e-05
1e-05
1e-05
1e-05
1e-05
1e-05
1e-05
1e-05
1e-05
1e-05
1e-05
1e-05
1e-05
1e-05
1e-05
1e-05
1e-05
1e-05
1e-05
1e-05
1e-05
1e-05
1e-05
1e-05
1e-05
1e-05
1e-05
1e-05
1e-05
1e-05
1e-05
1e-05
1e-05
1e-05
1e-05
1e-05
1e-05
1e-05
1e-05
1e-05
1e-05
1e-05
1e-05
1e-05
1e-05
1e-05
1e-05
1e-05
1e-05
1e-05
1e-05
1e-05
1e-05
1e-05
1e-05
1e-05
1e-05
1e-05
1e-05
1e-05
1e-05
1e-05
1e-05
1e-05
1e-05
1e-05
1e-05
1e-05
1e-05
1e-05
1e-05
1e-05
1e-05
1e-05
1e-05
1e-05
1e-05
1e-05
1e-05
1e-05
1e-05
1e-05
1e-05
1e-05
1e-05
1e-05
1e-05
1e-05
1e-05
1e-05
1e-05
1e-05
1e-05
1e-05
1e-05
1e-05
1e-05
1e-05
1e-05
1e-05
1e-05
1e-05
1e-05
1e-05
1e-05
1e-05
1e-05
1e-05
1e-05
1e-05
1e-05
1e-05
1e-05
1e-05
1e-05
1e-05
1e-05
1e-05
1e-05
1e-05
1e-05
1e-05
1e-05
1e-05
1e-05
1e-05
1e-05
1e-05
1e-05
1e-05
1e-05
1e-05
1e-05
1e-05
1e-05
1e-05
1e-05
1e-05
1e-05
1e-05
1e-05
1e-05
1e-05
1e-05
1e-05
1e-05
1e-05
1e-05
1e-05
1e-05
1e-05
1e-05
1e-05
1e-05
1e-05
1e-05
1e-05
1e-05
1e-05
1e-05
1e-05
1e-05
1e-05
1e-05
1e-05
1e-05
1e-05
1e-05
1e-05
1e-05
1e-05
1e-05
1e-05
1e-05
1e-05
1e-05
1e-05
1e-05
1e-05
1e-05
1e-05
1e-05
1e-05
1e-05
1e-05
1e-05
1e-05
1e-05
1e-05
1e-05
1e-05
1e-05
1e-05
1e-05
1e-05
1e-05
1e-05
1e-05
1e-05
1e-05
1e-05
1e-05
1e-05
1e-05
1e-05
1e-05
1e-05
1e-05
1e-05
1e-05
1e-05
1e-05
1e-05
1e-05
1e-05
1e-05
1e-05
1e-05
1e-05
1e-05
1e-05
1e-05
1e-05
1e-05
1e-05
1e-05
1e-05
1e-05
1e-05
1e-05
1e-05
1e-05
1e-05
1e-05
1e-05
1e-05
1e-05
1e-05
1e-05
1e-05
1e-05
1e-05
1e-05
1e-05
1e-05
1e-05
1e-05
1e-05
1e-05
1e-05
1e-05
1e-05
1e-05
1e-05
1e-05
1e-05
1e-05
1e-05
1e-05
1e-05
1e-05
1e-05
1e-05
1e-05
1e-05
1e-05
1e-05
1e-05
1e-05
1e-05
1e-05
1e-05
1e-05
1e-05
1e-05
1e-05
1e-05
1e-05
1e-05
1e-05
1e-05
1e-05
1e-05
1e-05
1e-05
1e-05
1e-05
1e-05
1e-05
1e-05
1e-05
1e-05
1e-05
1e-05
1e-05
1e-05
1e-05
1e-05
1e-05
1e-05
1e-05
1e-05
1e-05
1e-05
1e-05
1e-05
1e-05
1e-05
1e-05
1e-05
1e-05
1e-05
1e-05
1e-05
1e-05
1e-05
1e-05
1e-05
1e-05
1e-05
1e-05
1e-05
1e-05
1e-05
1e-05
1e-05
1e-05
1e-05
1e-05
1e-05
1e-05
1e-05
1e-05
1e-05
1e-05
1e-05
1e-05
1e-05
1e-05
1e-05
1e-05
1e-05
1e-05
1e-05
1e-05
1e-05
1e-05
1e-05
1e-05
1e-05
1e-05
1e-05
1e-05
1e-05
1e-05
1e-05
1e-05
1e-05
1e-05
1e-05
1e-05
1e-05
1e-05
1e-05
1e-05
1e-05
1e-05
1e-05
1e-05
1e-05
1e-05
1e-05
1e-05
1e-05
1e-05
1e-05
1e-05
1e-05
1e-05
1e-05
1e-05
1e-05
1e-05
1e-05
1e-05
1e-05
1e-05
1e-05
1e-05
1e-05
1e-05
1e-05
1e-05
1e-05
1e-05
1e-05
1e-05
1e-05
1e-05
1e-05
1e-05
1e-05
1e-05
1e-05
1e-05
1e-05
1e-05
1e-05
1e-05
1e-05
1e-05
1e-05
1e-05
1e-05
1e-05
1e-05
1e-05
1e-05
1e-05
1e-05
1e-05
1e-05
1e-05
1e-05
1e-05
1e-05
1e-05
1e-05
1e-05
1e-05
1e-05
1e-05
1e-05
1e-05
1e-05
1e-05
1e-05
1e-05
1e-05
1e-05
1e-05
1e-05
1e-05
1e-05
1e-05
1e-05
1e-05
1e-05
1e-05
1e-05
1e-05
1e-05
1e-05
1e-05
1e-05
1e-05
1e-05
1e-05
1e-05
1e-05
1e-05
1e-05
1e-05
1e-05
1e-05
1e-05
1e-05
1e-05
1e-05
1e-05
1e-05
1e-05
1e-05
1e-05
1e-05
1e-05
1e-05
1e-05
1e-05
1e-05
1e-05
1e-05
1e-05
1e-05
1e-05
1.1144e-05
1.46017e-05
1.77689e-05
1.86888e-05
1.69059e-05
1.35234e-05
1.05893e-05
1e-05
1e-05
1e-05
1e-05
1e-05
1e-05
1e-05
1e-05
1e-05
1e-05
1e-05
1e-05
1e-05
1e-05
1e-05
1e-05
1e-05
1e-05
1e-05
1e-05
1e-05
1e-05
1e-05
1e-05
1e-05
1e-05
1e-05
1e-05
1e-05
1e-05
1e-05
1e-05
1e-05
1e-05
1e-05
1e-05
1e-05
1e-05
1e-05
1e-05
1e-05
1e-05
1e-05
1e-05
1e-05
1e-05
1e-05
1e-05
1e-05
1e-05
1e-05
1e-05
1e-05
1e-05
1e-05
1e-05
1e-05
1e-05
1e-05
1e-05
1e-05
1e-05
1e-05
1e-05
1e-05
1e-05
1e-05
1e-05
1e-05
1e-05
1e-05
1e-05
1e-05
1e-05
1e-05
1e-05
1e-05
1e-05
1e-05
1e-05
1e-05
1e-05
1e-05
1e-05
1e-05
1e-05
1e-05
1e-05
1.00335e-05
2.08265e-05
5.43952e-05
0.000115003
0.000199234
0.000291858
0.000373072
0.000426665
0.000443315
0.000420463
0.000361924
0.000278178
0.000185891
0.000104065
4.6407e-05
1.62158e-05
1e-05
1e-05
1e-05
1e-05
1e-05
1e-05
1e-05
1e-05
1e-05
1e-05
1e-05
1e-05
1e-05
1e-05
1e-05
1e-05
1e-05
1e-05
1e-05
1e-05
1e-05
1e-05
1e-05
1e-05
1e-05
1e-05
1e-05
1e-05
1e-05
1e-05
1e-05
1e-05
1e-05
1e-05
1e-05
1e-05
1e-05
1e-05
1e-05
1e-05
1e-05
1e-05
1e-05
1e-05
1e-05
1e-05
1e-05
1e-05
1e-05
1e-05
1e-05
1e-05
1e-05
1e-05
1e-05
1e-05
1e-05
1e-05
1e-05
1e-05
1e-05
1e-05
1e-05
1e-05
1e-05
1e-05
1e-05
1e-05
1e-05
1e-05
1e-05
1e-05
1e-05
1e-05
1e-05
1e-05
1e-05
1e-05
1e-05
1e-05
1e-05
1.30062e-05
4.18543e-05
0.000118766
0.00027418
0.000506168
0.000770182
0.00103023
0.00126931
0.00147543
0.00163561
0.00173777
0.00177328
0.00173829
0.00163412
0.00146711
0.0012472
0.00098593
0.000697352
0.000409374
0.000178468
5.32069e-05
1.15967e-05
1e-05
1e-05
1e-05
1e-05
1e-05
1e-05
1e-05
1e-05
1e-05
1e-05
1e-05
1e-05
1e-05
1e-05
1e-05
1e-05
1e-05
1e-05
1e-05
1e-05
1e-05
1e-05
1e-05
1e-05
1e-05
1e-05
1e-05
1e-05
1e-05
1e-05
1e-05
1e-05
1e-05
1e-05
1e-05
1e-05
1e-05
1e-05
1e-05
1e-05
1e-05
1e-05
1e-05
1e-05
1e-05
1e-05
1e-05
1e-05
1e-05
1e-05
1e-05
1e-05
1e-05
1e-05
1e-05
1e-05
1e-05
1e-05
1e-05
1e-05
1e-05
1e-05
1e-05
1e-05
1e-05
1e-05
1e-05
1e-05
1e-05
1e-05
1e-05
1e-05
1e-05
1e-05
1e-05
1.50014e-05
5.54527e-05
0.000166668
0.000393324
0.000711906
0.00107825
0.00149117
0.00195318
0.00243901
0.00291339
0.00334528
0.00370812
0.00397836
0.00413668
0.00417048
0.00407609
0.00385984
0.00353711
0.00312889
0.00265743
0.00214539
0.00162122
0.00112132
0.000672858
0.00029771
7.38181e-05
1.10263e-05
1e-05
1e-05
1e-05
1e-05
1e-05
1e-05
1e-05
1e-05
1e-05
1e-05
1e-05
1e-05
1e-05
1e-05
1e-05
1e-05
1e-05
1e-05
1e-05
1e-05
1e-05
1e-05
1e-05
1e-05
1e-05
1e-05
1e-05
1e-05
1e-05
1e-05
1e-05
1e-05
1e-05
1e-05
1e-05
1e-05
1e-05
1e-05
1e-05
1e-05
1e-05
1e-05
1e-05
1e-05
1e-05
1e-05
1e-05
1e-05
1e-05
1e-05
1e-05
1e-05
1e-05
1e-05
1e-05
1e-05
1e-05
1e-05
1e-05
1e-05
1e-05
1e-05
1e-05
1e-05
1e-05
1e-05
1e-05
1e-05
1e-05
1e-05
1e-05
3.57852e-05
0.000144193
0.000390992
0.000746047
0.00117527
0.00170133
0.00233655
0.00307576
0.00392477
0.00488524
0.00592892
0.00699247
0.00798802
0.00882033
0.00940328
0.00967273
0.00959652
0.00918184
0.00847765
0.00756788
0.00655214
0.00551849
0.00452469
0.00359913
0.00275002
0.00197323
0.00127309
0.000688765
0.000255755
4.05645e-05
1e-05
1e-05
1e-05
1e-05
1e-05
1e-05
1e-05
1e-05
1e-05
1e-05
1e-05
1e-05
1e-05
1e-05
1e-05
1e-05
1e-05
1e-05
1e-05
1e-05
1e-05
1e-05
1e-05
1e-05
1e-05
1e-05
1e-05
1e-05
1e-05
1e-05
1e-05
1e-05
1e-05
1e-05
1e-05
1e-05
1e-05
1e-05
1e-05
1e-05
1e-05
1e-05
1e-05
1e-05
1e-05
1e-05
1e-05
1e-05
1e-05
1e-05
1e-05
1e-05
1e-05
1e-05
1e-05
1e-05
1e-05
1e-05
1e-05
1e-05
1e-05
1e-05
1e-05
1e-05
1e-05
1e-05
1e-05
1e-05
3.75018e-05
0.000196718
0.000530907
0.000978255
0.00154
0.00222881
0.00307292
0.00414693
0.00554417
0.00735129
0.00963305
0.0124044
0.0155831
0.0189456
0.022146
0.0247969
0.0265523
0.0271665
0.0265323
0.0247103
0.0219386
0.0186045
0.0151571
0.011973
0.00926167
0.00707119
0.00534223
0.00396359
0.00282853
0.00187147
0.00107039
0.000461852
9.64838e-05
1e-05
1e-05
1e-05
1e-05
1e-05
1e-05
1e-05
1e-05
1e-05
1e-05
1e-05
1e-05
1e-05
1e-05
1e-05
1e-05
1e-05
1e-05
1e-05
1e-05
1e-05
1e-05
1e-05
1e-05
1e-05
1e-05
1e-05
1e-05
1e-05
1e-05
1e-05
1e-05
1e-05
1e-05
1e-05
1e-05
1e-05
1e-05
1e-05
1e-05
1e-05
1e-05
1e-05
1e-05
1e-05
1e-05
1e-05
1e-05
1e-05
1e-05
1e-05
1e-05
1e-05
1e-05
1e-05
1e-05
1e-05
1e-05
1e-05
1e-05
1e-05
1e-05
1e-05
1e-05
1e-05
1.21144e-05
0.000121743
0.000459275
0.000971685
0.0016332
0.00243251
0.00343236
0.00477391
0.00668686
0.00950052
0.0136092
0.0193943
0.0271152
0.0368208
0.0481911
0.06033
0.0718527
0.0812649
0.0872993
0.0890917
0.0862786
0.0790875
0.0684059
0.0557381
0.042902
0.0314504
0.0222172
0.015359
0.0105846
0.007369
0.00517515
0.00358841
0.0023533
0.00135916
0.000597371
0.000132226
1e-05
1e-05
1e-05
1e-05
1e-05
1e-05
1e-05
1e-05
1e-05
1e-05
1e-05
1e-05
1e-05
1e-05
1e-05
1e-05
1e-05
1e-05
1e-05
1e-05
1e-05
1e-05
1e-05
1e-05
1e-05
1e-05
1e-05
1e-05
1e-05
1e-05
1e-05
1e-05
1e-05
1e-05
1e-05
1e-05
1e-05
1e-05
1e-05
1e-05
1e-05
1e-05
1e-05
1e-05
1e-05
1e-05
1e-05
1e-05
1e-05
1e-05
1e-05
1e-05
1e-05
1e-05
1e-05
1e-05
1e-05
1e-05
1e-05
1e-05
1e-05
1e-05
1e-05
1.70299e-05
0.000199612
0.000666566
0.00135412
0.00220966
0.00326455
0.00466354
0.00673978
0.0100968
0.0156759
0.0247538
0.0387924
0.0590931
0.0862725
0.120068
0.158912
0.199205
0.236044
0.264956
0.282805
0.287715
0.278824
0.256361
0.222127
0.180096
0.136189
0.0962862
0.0639621
0.0403318
0.024683
0.0151184
0.00953537
0.00624442
0.00414705
0.0026481
0.00149082
0.00062574
0.000118789
1e-05
1e-05
1e-05
1e-05
1e-05
1e-05
1e-05
1e-05
1e-05
1e-05
1e-05
1e-05
1e-05
1e-05
1e-05
1e-05
1e-05
1e-05
1e-05
1e-05
1e-05
1e-05
1e-05
1e-05
1e-05
1e-05
1e-05
1e-05
1e-05
1e-05
1e-05
1e-05
1e-05
1e-05
1e-05
1e-05
1e-05
1e-05
1e-05
1e-05
1e-05
1e-05
1e-05
1e-05
1e-05
1e-05
1e-05
1e-05
1e-05
1e-05
1e-05
1e-05
1e-05
1e-05
1e-05
1e-05
1e-05
1e-05
1e-05
1e-05
1e-05
1.30853e-05
0.000205069
0.000751212
0.00157083
0.00260341
0.00390537
0.00574317
0.00875765
0.0142326
0.0244106
0.0426822
0.0733285
0.120475
0.186204
0.268053
0.359924
0.453209
0.53671
0.601486
0.644942
0.668723
0.674796
0.663218
0.631574
0.575989
0.494891
0.394626
0.289502
0.194103
0.11888
0.0676116
0.0368096
0.020048
0.011435
0.00696735
0.00441256
0.00271012
0.00144708
0.000542356
6.87776e-05
1e-05
1e-05
1e-05
1e-05
1e-05
1e-05
1e-05
1e-05
1e-05
1e-05
1e-05
1e-05
1e-05
1e-05
1e-05
1e-05
1e-05
1e-05
1e-05
1e-05
1e-05
1e-05
1e-05
1e-05
1e-05
1e-05
1e-05
1e-05
1e-05
1e-05
1e-05
1e-05
1e-05
1e-05
1e-05
1e-05
1e-05
1e-05
1e-05
1e-05
1e-05
1e-05
1e-05
1e-05
1e-05
1e-05
1e-05
1e-05
1e-05
1e-05
1e-05
1e-05
1e-05
1e-05
1e-05
1e-05
1e-05
1e-05
1e-05
1e-05
0.000133322
0.000680649
0.00157705
0.00274157
0.00424484
0.00646581
0.0104189
0.0183735
0.0347745
0.0670613
0.12516
0.217687
0.344313
0.489477
0.623027
0.724278
0.794212
0.841069
0.871462
0.889942
0.89961
0.902146
0.897724
0.884865
0.860171
0.817911
0.74924
0.642407
0.493448
0.329032
0.191438
0.0998262
0.0488859
0.0239361
0.0124938
0.00715464
0.00433368
0.00253478
0.00124153
0.000375465
2.34598e-05
1e-05
1e-05
1e-05
1e-05
1e-05
1e-05
1e-05
1e-05
1e-05
1e-05
1e-05
1e-05
1e-05
1e-05
1e-05
1e-05
1e-05
1e-05
1e-05
1e-05
1e-05
1e-05
1e-05
1e-05
1e-05
1e-05
1e-05
1e-05
1e-05
1e-05
1e-05
1e-05
1e-05
1e-05
1e-05
1e-05
1e-05
1e-05
1e-05
1e-05
1e-05
1e-05
1e-05
1e-05
1e-05
1e-05
1e-05
1e-05
1e-05
1e-05
1e-05
1e-05
1e-05
1e-05
1e-05
1e-05
1e-05
1e-05
4.41189e-05
0.000478965
0.00136903
0.00260031
0.00422078
0.00666407
0.0112465
0.0212735
0.0440261
0.092995
0.186669
0.336126
0.520998
0.686692
0.801726
0.872934
0.915235
0.940351
0.955553
0.964811
0.970282
0.973174
0.974073
0.973035
0.969543
0.962332
0.948918
0.924455
0.879451
0.797282
0.65691
0.457731
0.260461
0.126216
0.0562552
0.0251985
0.012305
0.00674658
0.00393029
0.00215836
0.00092036
0.000180363
1e-05
1e-05
1e-05
1e-05
1e-05
1e-05
1e-05
1e-05
1e-05
1e-05
1e-05
1e-05
1e-05
1e-05
1e-05
1e-05
1e-05
1e-05
1e-05
1e-05
1e-05
1e-05
1e-05
1e-05
1e-05
1e-05
1e-05
1e-05
1e-05
1e-05
1e-05
1e-05
1e-05
1e-05
1e-05
1e-05
1e-05
1e-05
1e-05
1e-05
1e-05
1e-05
1e-05
1e-05
1e-05
1e-05
1e-05
1e-05
1e-05
1e-05
1e-05
1e-05
1e-05
1e-05
1e-05
1e-05
1e-05
1.0157e-05
0.000210734
0.000984789
0.00219993
0.00383983
0.00629547
0.0109657
0.02179
0.0485348
0.111449
0.239428
0.440196
0.653535
0.805728
0.893007
0.939178
0.963341
0.976165
0.983144
0.987067
0.989334
0.990663
0.991433
0.991819
0.991833
0.991313
0.989848
0.986595
0.979791
0.965632
0.935902
0.87354
0.748827
0.538941
0.299998
0.135217
0.0554371
0.0232471
0.0109325
0.00585989
0.00328745
0.00165162
0.000562848
4.93384e-05
1e-05
1e-05
1e-05
1e-05
1e-05
1e-05
1e-05
1e-05
1e-05
1e-05
1e-05
1e-05
1e-05
1e-05
1e-05
1e-05
1e-05
1e-05
1e-05
1e-05
1e-05
1e-05
1e-05
1e-05
1e-05
1e-05
1e-05
1e-05
1e-05
1e-05
1e-05
1e-05
1e-05
1e-05
1e-05
1e-05
1e-05
1e-05
1e-05
1e-05
1e-05
1e-05
1e-05
1e-05
1e-05
1e-05
1e-05
1e-05
1e-05
1e-05
1e-05
1e-05
1e-05
1e-05
1e-05
1e-05
3.82253e-05
0.000530355
0.00160869
0.00316999
0.00546251
0.00969546
0.0197066
0.0461616
0.114175
0.263817
0.501111
0.727913
0.866904
0.935775
0.96762
0.982145
0.988762
0.991739
0.993038
0.993581
0.993813
0.993953
0.994111
0.994338
0.994633
0.994948
0.995155
0.994984
0.993837
0.990355
0.981359
0.959259
0.906258
0.78645
0.562514
0.296234
0.122754
0.0469044
0.0189632
0.00886384
0.00471508
0.00251747
0.00109519
0.000238112
1.0482e-05
1e-05
1e-05
1e-05
1e-05
1e-05
1e-05
1e-05
1e-05
1e-05
1e-05
1e-05
1e-05
1e-05
1e-05
1e-05
1e-05
1e-05
1e-05
1e-05
1e-05
1e-05
1e-05
1e-05
1e-05
1e-05
1e-05
1e-05
1e-05
1e-05
1e-05
1e-05
1e-05
1e-05
1e-05
1e-05
1e-05
1e-05
1e-05
1e-05
1e-05
1e-05
1e-05
1e-05
1e-05
1e-05
1e-05
1e-05
1e-05
1e-05
1e-05
1e-05
1e-05
1e-05
1e-05
1e-05
0.000130492
0.000929902
0.00231395
0.00434499
0.00785549
0.0159134
0.0380134
0.0996695
0.250172
0.509079
0.754759
0.893292
0.954749
0.979815
0.989612
0.993142
0.994117
0.994088
0.993717
0.993298
0.992963
0.992772
0.992755
0.992923
0.993276
0.993798
0.994452
0.995156
0.995715
0.995657
0.993787
0.987024
0.96733
0.914173
0.783026
0.529721
0.25132
0.0950083
0.0346008
0.0139713
0.00666932
0.00352133
0.00172967
0.00058706
5.254e-05
1e-05
1e-05
1e-05
1e-05
1e-05
1e-05
1e-05
1e-05
1e-05
1e-05
1e-05
1e-05
1e-05
1e-05
1e-05
1e-05
1e-05
1e-05
1e-05
1e-05
1e-05
1e-05
1e-05
1e-05
1e-05
1e-05
1e-05
1e-05
1e-05
1e-05
1e-05
1e-05
1e-05
1e-05
1e-05
1e-05
1e-05
1e-05
1e-05
1e-05
1e-05
1e-05
1e-05
1e-05
1e-05
1e-05
1e-05
1e-05
1e-05
1e-05
1e-05
1e-05
1e-05
1e-05
1.18503e-05
0.0003138
0.00138832
0.00311244
0.00588641
0.011723
0.0275734
0.0745213
0.203067
0.462475
0.740095
0.896409
0.960946
0.984627
0.992555
0.994614
0.994547
0.99378
0.992867
0.992024
0.991341
0.99085
0.990566
0.990494
0.990634
0.990986
0.991544
0.992299
0.993228
0.994273
0.995273
0.995778
0.994535
0.988008
0.966255
0.902389
0.738617
0.442479
0.182077
0.0636326
0.022859
0.00955895
0.0047167
0.00241296
0.0010104
0.000198138
1.00899e-05
1e-05
1e-05
1e-05
1e-05
1e-05
1e-05
1e-05
1e-05
1e-05
1e-05
1e-05
1e-05
1e-05
1e-05
1e-05
1e-05
1e-05
1e-05
1e-05
1e-05
1e-05
1e-05
1e-05
1e-05
1e-05
1e-05
1e-05
1e-05
1e-05
1e-05
1e-05
1e-05
1e-05
1e-05
1e-05
1e-05
1e-05
1e-05
1e-05
1e-05
1e-05
1e-05
1e-05
1e-05
1e-05
1e-05
1e-05
1e-05
1e-05
1e-05
1e-05
1e-05
1e-05
3.03508e-05
0.000575785
0.00190702
0.00405847
0.00806304
0.0181474
0.0485751
0.140358
0.365928
0.678937
0.87713
0.957678
0.985237
0.993486
0.99508
0.994486
0.993269
0.991982
0.990818
0.989848
0.989092
0.988558
0.988243
0.988148
0.988269
0.988605
0.989155
0.989918
0.99089
0.992057
0.993366
0.994646
0.995374
0.993953
0.985571
0.955916
0.865622
0.641701
0.315772
0.113191
0.037885
0.0139988
0.00622096
0.00312708
0.00146131
0.000445475
3.18064e-05
1e-05
1e-05
1e-05
1e-05
1e-05
1e-05
1e-05
1e-05
1e-05
1e-05
1e-05
1e-05
1e-05
1e-05
1e-05
1e-05
1e-05
1e-05
1e-05
1e-05
1e-05
1e-05
1e-05
1e-05
1e-05
1e-05
1e-05
1e-05
1e-05
1e-05
1e-05
1e-05
1e-05
1e-05
1e-05
1e-05
1e-05
1e-05
1e-05
1e-05
1e-05
1e-05
1e-05
1e-05
1e-05
1e-05
1e-05
1e-05
1e-05
1e-05
1e-05
1e-05
1e-05
7.39235e-05
0.000875511
0.00248089
0.00522771
0.0112309
0.0285225
0.0835449
0.243614
0.557958
0.825547
0.942635
0.981862
0.993096
0.99518
0.994437
0.99294
0.991364
0.989927
0.988697
0.987692
0.986915
0.986363
0.986033
0.98592
0.986023
0.98634
0.986872
0.987619
0.988583
0.989765
0.991148
0.992669
0.994096
0.994677
0.991986
0.978358
0.930327
0.786906
0.481673
0.189295
0.0618787
0.0207966
0.00821236
0.00387465
0.00188496
0.000712075
9.76892e-05
1e-05
1e-05
1e-05
1e-05
1e-05
1e-05
1e-05
1e-05
1e-05
1e-05
1e-05
1e-05
1e-05
1e-05
1e-05
1e-05
1e-05
1e-05
1e-05
1e-05
1e-05
1e-05
1e-05
1e-05
1e-05
1e-05
1e-05
1e-05
1e-05
1e-05
1e-05
1e-05
1e-05
1e-05
1e-05
1e-05
1e-05
1e-05
1e-05
1e-05
1e-05
1e-05
1e-05
1e-05
1e-05
1e-05
1e-05
1e-05
1e-05
1e-05
1e-05
1e-05
1e-05
0.000152859
0.00119209
0.00311188
0.00670491
0.0157724
0.0442749
0.136235
0.379972
0.718306
0.905984
0.97184
0.990891
0.994956
0.994534
0.992916
0.991113
0.989428
0.987951
0.986702
0.985686
0.984897
0.984332
0.983986
0.983856
0.98394
0.984237
0.984746
0.98547
0.986412
0.987575
0.988958
0.990535
0.992201
0.993574
0.993365
0.987294
0.961461
0.874042
0.638964
0.29267
0.0976624
0.0309095
0.0109274
0.00468266
0.00224592
0.000945045
0.000202812
1.18267e-05
1e-05
1e-05
1e-05
1e-05
1e-05
1e-05
1e-05
1e-05
1e-05
1e-05
1e-05
1e-05
1e-05
1e-05
1e-05
1e-05
1e-05
1e-05
1e-05
1e-05
1e-05
1e-05
1e-05
1e-05
1e-05
1e-05
1e-05
1e-05
1e-05
1e-05
1e-05
1e-05
1e-05
1e-05
1e-05
1e-05
1e-05
1e-05
1e-05
1e-05
1e-05
1e-05
1e-05
1e-05
1e-05
1e-05
1e-05
1e-05
1e-05
1e-05
1e-05
1.00531e-05
0.000280326
0.00153042
0.00381385
0.00856368
0.0219854
0.0663508
0.207017
0.527117
0.823735
0.947056
0.98463
0.993863
0.994684
0.993211
0.991258
0.98935
0.987632
0.986142
0.984885
0.983857
0.983055
0.982474
0.98211
0.981961
0.982023
0.982297
0.982782
0.983479
0.984392
0.985525
0.98688
0.988447
0.990174
0.991854
0.992755
0.990363
0.976173
0.922621
0.756427
0.416543
0.147625
0.0454258
0.0146685
0.00560745
0.00253036
0.00111028
0.000309568
2.28386e-05
1e-05
1e-05
1e-05
1e-05
1e-05
1e-05
1e-05
1e-05
1e-05
1e-05
1e-05
1e-05
1e-05
1e-05
1e-05
1e-05
1e-05
1e-05
1e-05
1e-05
1e-05
1e-05
1e-05
1e-05
1e-05
1e-05
1e-05
1e-05
1e-05
1e-05
1e-05
1e-05
1e-05
1e-05
1e-05
1e-05
1e-05
1e-05
1e-05
1e-05
1e-05
1e-05
1e-05
1e-05
1e-05
1e-05
1e-05
1e-05
1e-05
1e-05
1e-05
1.58598e-05
0.000460691
0.00190038
0.00459868
0.0108347
0.0299567
0.0946779
0.290962
0.652849
0.886542
0.967892
0.990141
0.994436
0.993724
0.991788
0.9897
0.987753
0.986022
0.984522
0.983253
0.98221
0.98139
0.980789
0.980403
0.98023
0.980268
0.980515
0.980972
0.981639
0.982519
0.983614
0.984928
0.986457
0.988171
0.989951
0.991353
0.990819
0.982933
0.949378
0.834835
0.544392
0.212812
0.0655471
0.019832
0.00674476
0.00274256
0.00118191
0.000375152
3.68905e-05
1e-05
1e-05
1e-05
1e-05
1e-05
1e-05
1e-05
1e-05
1e-05
1e-05
1e-05
1e-05
1e-05
1e-05
1e-05
1e-05
1e-05
1e-05
1e-05
1e-05
1e-05
1e-05
1e-05
1e-05
1e-05
1e-05
1e-05
1e-05
1e-05
1e-05
1e-05
1e-05
1e-05
1e-05
1e-05
1e-05
1e-05
1e-05
1e-05
1e-05
1e-05
1e-05
1e-05
1e-05
1e-05
1e-05
1e-05
1e-05
1e-05
1e-05
1e-05
3.45278e-05
0.00067606
0.00229579
0.00545729
0.0134748
0.0394863
0.128127
0.380307
0.743102
0.922812
0.978609
0.992395
0.994102
0.992626
0.990472
0.988322
0.986353
0.984608
0.983094
0.981806
0.980743
0.979899
0.979273
0.978861
0.97866
0.978669
0.978887
0.979312
0.979944
0.980785
0.981837
0.983102
0.984577
0.986244
0.988028
0.989644
0.990078
0.985754
0.964253
0.885383
0.65595
0.293021
0.0928881
0.0270293
0.00826588
0.00291321
0.00114832
0.000374143
4.33958e-05
1e-05
1e-05
1e-05
1e-05
1e-05
1e-05
1e-05
1e-05
1e-05
1e-05
1e-05
1e-05
1e-05
1e-05
1e-05
1e-05
1e-05
1e-05
1e-05
1e-05
1e-05
1e-05
1e-05
1e-05
1e-05
1e-05
1e-05
1e-05
1e-05
1e-05
1e-05
1e-05
1e-05
1e-05
1e-05
1e-05
1e-05
1e-05
1e-05
1e-05
1e-05
1e-05
1e-05
1e-05
1e-05
1e-05
1e-05
1e-05
1e-05
1e-05
1e-05
7.14093e-05
0.000898856
0.00269378
0.00634876
0.0163301
0.0499526
0.164165
0.465729
0.80341
0.943899
0.984239
0.993199
0.993486
0.991605
0.989335
0.987146
0.985157
0.983393
0.981856
0.980543
0.979452
0.97858
0.977924
0.97748
0.977248
0.977224
0.977407
0.977796
0.978389
0.979187
0.980189
0.981397
0.982808
0.984409
0.986148
0.987832
0.988778
0.986552
0.972571
0.917888
0.743423
0.388347
0.130195
0.0373424
0.0104952
0.00312138
0.00101809
0.000300259
3.47924e-05
1e-05
1e-05
1e-05
1.14211e-05
1.83814e-05
3.01469e-05
4.53961e-05
6.30081e-05
8.18716e-05
0.000100245
0.000115329
0.000123544
0.000121719
0.00010874
8.66588e-05
6.03956e-05
3.59715e-05
1.83771e-05
1.03401e-05
1e-05
1e-05
1e-05
1e-05
1e-05
1e-05
1e-05
1e-05
1e-05
1e-05
1e-05
1e-05
1e-05
1e-05
1e-05
1e-05
1e-05
1e-05
1e-05
1e-05
1e-05
1e-05
1e-05
1e-05
1e-05
1e-05
1e-05
1e-05
1e-05
1e-05
1e-05
1e-05
0.000131032
0.00111183
0.00306774
0.00720296
0.0191204
0.0602217
0.198614
0.537277
0.842571
0.956344
0.987257
0.993388
0.992863
0.99075
0.988406
0.986183
0.984167
0.982375
0.980807
0.979463
0.978338
0.977431
0.976739
0.97626
0.975991
0.97593
0.976074
0.976422
0.976971
0.97772
0.978668
0.979813