# vtk DataFile Version 2.0
time_10.vtk
ASCII
DATASET STRUCTURED_GRID
DIMENSIONS 100 100 1
POINTS 10000 float
-0.5 -0.5 0
-0.5 0 0
-0.5 0.5 0
-0.5 1 0
-0.5 1.5 0
-0.5 2 0
-0.5 2.5 0
-0.5 3 0
-0.5 3.5 0
-0.5 4 0
-0.5 4.5 0
-0.5 5 0
-0.5 5.5 0
-0.5 6 0
-0.5 6.5 0
-0.5 7 0
-0.5 7.5 0
-0.5 8 0
-0.5 8.5 0
-0.5 9 0
-0.5 9.5 0
-0.5 10 0
-0.5 10.5 0
-0.5 11 0
-0.5 11.5 0
-0.5 12 0
-0.5 12.5 0
-0.5 13 0
-0.5 13.5 0
-0.5 14 0
-0.5 14.5 0
-0.5 15 0
-0.5 15.5 0
-0.5 16 0
-0.5 16.5 0
-0.5 17 0
-0.5 17.5 0
-0.5 18 0
-0.5 18.5 0
-0.5 19 0
-0.5 19.5 0
-0.5 20 0
-0.5 20.5 0
-0.5 21 0
-0.5 21.5 0
-0.5 22 0
-0.5 22.5 0
-0.5 23 0
-0.5 23.5 0
-0.5 24 0
-0.5 24.5 0
-0.5 25 0
-0.5 25.5 0
-0.5 26 0
-0.5 26.5 0
-0.5 27 0
-0.5 27.5 0
-0.5 28 0
-0.5 28.5 0
-0.5 29 0
-0.5 29.5 0
-0.5 30 0
-0.5 30.5 0
-0.5 31 0
-0.5 31.5 0
-0.5 32 0
-0.5 32.5 0
-0.5 33 0
-0.5 33.5 0
-0.5 34 0
-0.5 34.5 0
-0.5 35 0
-0.5 35.5 0
-0.5 36 0
-0.5 36.5 0
-0.5 37 0
-0.5 37.5 0
-0.5 38 0
-0.5 38.5 0
-0.5 39 0
-0.5 39.5 0
-0.5 40 0
-0.5 40.5 0
-0.5 41 0
-0.5 41.5 0
-0.5 42 0
-0.5 42.5 0
-0.5 43 0
-0.5 43.5 0
-0.5 44 0
-0.5 44.5 0
-0.5 45 0
-0.5 45.5 0
-0.5 46 0
-0.5 46.5 0
-0.5 47 0
-0.5 47.5 0
-0.5 48 0
-0.5 48.5 0
-0.5 49 0
0 -0.5 0
0 0 0
0 0.5 0
0 1 0
0 1.5 0
0 2 0
0 2.5 0
0 3 0
0 3.5 0
0 4 0
0 4.5 0
0 5 0
0 5.5 0
0 6 0
0 6.5 0
0 7 0
0 7.5 0
0 8 0
0 8.5 0
0 9 0
0 9.5 0
0 10 0
0 10.5 0
0 11 0
0 11.5 0
0 12 0
0 12.5 0
0 13 0
0 13.5 0
0 14 0
0 14.5 0
0 15 0
0 15.5 0
0 16 0
0 16.5 0
0 17 0
0 17.5 0
0 18 0
0 18.5 0
0 19 0
0 19.5 0
0 20 0
0 20.5 0
0 21 0
0 21.5 0
0 22 0
0 22.5 0
0 23 0
0 23.5 0
0 24 0
0 24.5 0
0 25 0
0 25.5 0
0 26 0
0 26.5 0
0 27 0
0 27.5 0
0 28 0
0 28.5 0
0 29 0
0 29.5 0
0 30 0
0 30.5 0
0 31 0
0 31.5 0
0 32 0
0 32.5 0
0 33 0
0 33.5 0
0 34 0
0 34.5 0
0 35 0
0 35.5 0
0 36 0
0 36.5 0
0 37 0
0 37.5 0
0 38 0
0 38.5 0
0 39 0
0 39.5 0
0 40 0
0 40.5 0
0 41 0
0 41.5 0
0 42 0
0 42.5 0
0 43 0
0 43.5 0
0 44 0
0 44.5 0
0 45 0
0 45.5 0
0 46 0
0 46.5 0
0 47 0
0 47.5 0
0 48 0
0 48.5 0
0 49 0
0.5 -0.5 0
0.5 0 0
0.5 0.5 0
0.5 1 0
0.5 1.5 0
0.5 2 0
0.5 2.5 0
0.5 3 0
0.5 3.5 0
0.5 4 0
0.5 4.5 0
0.5 5 0
0.5 5.5 0
0.5 6 0
0.5 6.5 0
0.5 7 0
0.5 7.5 0
0.5 8 0
0.5 8.5 0
0.5 9 0
0.5 9.5 0
0.5 10 0
0.5 10.5 0
0.5 11 0
0.5 11.5 0
0.5 12 0
0.5 12.5 0
0.5 13 0
0.5 13.5 0
0.5 14 0
0.5 14.5 0
0.5 15 0
0.5 15.5 0
0.5 16 0
0.5 16.5 0
0.5 17 0
0.5 17.5 0
0.5 18 0
0.5 18.5 0
0.5 19 0
0.5 19.5 0
0.5 20 0
0.5 20.5 0
0.5 21 0
0.5 21.5 0
0.5 22 0
0.5 22.5 0
0.5 23 0
0.5 23.5 0
0.5 24 0
0.5 24.5 0
0.5 25 0
0.5 25.5 0
0.5 26 0
0.5 26.5 0
0.5 27 0
0.5 27.5 0
0.5 28 0
0.5 28.5 0
0.5 29 0
0.5 29.5 0
0.5 30 0
0.5 30.5 0
0.5 31 0
0.5 31.5 0
0.5 32 0
0.5 32.5 0
0.5 33 0
0.5 33.5 0
0.5 34 0
0.5 34.5 0
0.5 35 0
0.5 35.5 0
0.5 36 0
0.5 36.5 0
0.5 37 0
0.5 37.5 0
0.5 38 0
0.5 38.5 0
0.5 39 0
0.5 39.5 0
0.5 40 0
0.5 40.5 0
0.5 41 0
0.5 41.5 0
0.5 42 0
0.5 42.5 0
0.5 43 0
0.5 43.5 0
0.5 44 0
0.5 44.5 0
0.5 45 0
0.5 45.5 0
0.5 46 0
0.5 46.5 0
0.5 47 0
0.5 47.5 0
0.5 48 0
0.5 48.5 0
0.5 49 0
1 -0.5 0
1 0 0
1 0.5 0
1 1 0
1 1.5 0
1 2 0
1 2.5 0
1 3 0
1 3.5 0
1 4 0
1 4.5 0
1 5 0
1 5.5 0
1 6 0
1 6.5 0
1 7 0
1 7.5 0
1 8 0
1 8.5 0
1 9 0
1 9.5 0
1 10 0
1 10.5 0
1 11 0
1 11.5 0
1 12 0
1 12.5 0
1 13 0
1 13.5 0
1 14 0
1 14.5 0
1 15 0
1 15.5 0
1 16 0
1 16.5 0
1 17 0
1 17.5 0
1 18 0
1 18.5 0
1 19 0
1 19.5 0
1 20 0
1 20.5 0
1 21 0
1 21.5 0
1 22 0
1 22.5 0
1 23 0
1 23.5 0
1 24 0
1 24.5 0
1 25 0
1 25.5 0
1 26 0
1 26.5 0
1 27 0
1 27.5 0
1 28 0
1 28.5 0
1 29 0
1 29.5 0
1 30 0
1 30.5 0
1 31 0
1 31.5 0
1 32 0
1 32.5 0
1 33 0
1 33.5 0
1 34 0
1 34.5 0
1 35 0
1 35.5 0
1 36 0
1 36.5 0
1 37 0
1 37.5 0
1 38 0
1 38.5 0
1 39 0
1 39.5 0
1 40 0
1 40.5 0
1 41 0
1 41.5 0
1 42 0
1 42.5 0
1 43 0
1 43.5 0
1 44 0
1 44.5 0
1 45 0
1 45.5 0
1 46 0
1 46.5 0
1 47 0
1 47.5 0
1 48 0
1 48.5 0
1 49 0
1.5 -0.5 0
1.5 0 0
1.5 0.5 0
1.5 1 0
1.5 1.5 0
1.5 2 0
1.5 2.5 0
1.5 3 0
1.5 3.5 0
1.5 4 0
1.5 4.5 0
1.5 5 0
1.5 5.5 0
1.5 6 0
1.5 6.5 0
1.5 7 0
1.5 7.5 0
1.5 8 0
1.5 8.5 0
1.5 9 0
1.5 9.5 0
1.5 10 0
1.5 10.5 0
1.5 11 0
1.5 11.5 0
1.5 12 0
1.5 12.5 0
1.5 13 0
1.5 13.5 0
1.5 14 0
1.5 14.5 0
1.5 15 0
1.5 15.5 0
1.5 16 0
1.5 16.5 0
1.5 17 0
1.5 17.5 0
1.5 18 0
1.5 18.5 0
1.5 19 0
1.5 19.5 0
1.5 20 0
1.5 20.5 0
1.5 21 0
1.5 21.5 0
1.5 22 0
1.5 22.5 0
1.5 23 0
1.5 23.5 0
1.5 24 0
1.5 24.5 0
1.5 25 0
1.5 25.5 0
1.5 26 0
1.5 26.5 0
1.5 27 0
1.5 27.5 0
1.5 28 0
1.5 28.5 0
1.5 29 0
1.5 29.5 0
1.5 30 0
1.5 30.5 0
1.5 31 0
1.5 31.5 0
1.5 32 0
1.5 32.5 0
1.5 33 0
1.5 33.5 0
1.5 34 0
1.5 34.5 0
1.5 35 0
1.5 35.5 0
1.5 36 0
1.5 36.5 0
1.5 37 0
1.5 37.5 0
1.5 38 0
1.5 38.5 0
1.5 39 0
1.5 39.5 0
1.5 40 0
1.5 40.5 0
1.5 41 0
1.5 41.5 0
1.5 42 0
1.5 42.5 0
1.5 43 0
1.5 43.5 0
1.5 44 0
1.5 44.5 0
1.5 45 0
1.5 45.5 0
1.5 46 0
1.5 46.5 0
1.5 47 0
1.5 47.5 0
1.5 48 0
1.5 48.5 0
1.5 49 0
2 -0.5 0
2 0 0
2 0.5 0
2 1 0
2 1.5 0
2 2 0
2 2.5 0
2 3 0
2 3.5 0
2 4 0
2 4.5 0
2 5 0
2 5.5 0
2 6 0
2 6.5 0
2 7 0
2 7.5 0
2 8 0
2 8.5 0
2 9 0
2 9.5 0
2 10 0
2 10.5 0
2 11 0
2 11.5 0
2 12 0
2 12.5 0
2 13 0
2 13.5 0
2 14 0
2 14.5 0
2 15 0
2 15.5 0
2 16 0
2 16.5 0
2 17 0
2 17.5 0
2 18 0
2 18.5 0
2 19 0
2 19.5 0
2 20 0
2 20.5 0
2 21 0
2 21.5 0
2 22 0
2 22.5 0
2 23 0
2 23.5 0
2 24 0
2 24.5 0
2 25 0
2 25.5 0
2 26 0
2 26.5 0
2 27 0
2 27.5 0
2 28 0
2 28.5 0
2 29 0
2 29.5 0
2 30 0
2 30.5 0
2 31 0
2 31.5 0
2 32 0
2 32.5 0
2 33 0
2 33.5 0
2 34 0
2 34.5 0
2 35 0
2 35.5 0
2 36 0
2 36.5 0
2 37 0
2 37.5 0
2 38 0
2 38.5 0
2 39 0
2 39.5 0
2 40 0
2 40.5 0
2 41 0
2 41.5 0
2 42 0
2 42.5 0
2 43 0
2 43.5 0
2 44 0
2 44.5 0
2 45 0
2 45.5 0
2 46 0
2 46.5 0
2 47 0
2 47.5 0
2 48 0
2 48.5 0
2 49 0
2.5 -0.5 0
2.5 0 0
2.5 0.5 0
2.5 1 0
2.5 1.5 0
2.5 2 0
2.5 2.5 0
2.5 3 0
2.5 3.5 0
2.5 4 0
2.5 4.5 0
2.5 5 0
2.5 5.5 0
2.5 6 0
2.5 6.5 0
2.5 7 0
2.5 7.5 0
2.5 8 0
2.5 8.5 0
2.5 9 0
2.5 9.5 0
2.5 10 0
2.5 10.5 0
2.5 11 0
2.5 11.5 0
2.5 12 0
2.5 12.5 0
2.5 13 0
2.5 13.5 0
2.5 14 0
2.5 14.5 0
2.5 15 0
2.5 15.5 0
2.5 16 0
2.5 16.5 0
2.5 17 0
2.5 17.5 0
2.5 18 0
2.5 18.5 0
2.5 19 0
2.5 19.5 0
2.5 20 0
2.5 20.5 0
2.5 21 0
2.5 21.5 0
2.5 22 0
2.5 22.5 0
2.5 23 0
2.5 23.5 0
2.5 24 0
2.5 24.5 0
2.5 25 0
2.5 25.5 0
2.5 26 0
2.5 26.5 0
2.5 27 0
2.5 27.5 0
2.5 28 0
2.5 28.5 0
2.5 29 0
2.5 29.5 0
2.5 30 0
2.5 30.5 0
2.5 31 0
2.5 31.5 0
2.5 32 0
2.5 32.5 0
2.5 33 0
2.5 33.5 0
2.5 34 0
2.5 34.5 0
2.5 35 0
2.5 35.5 0
2.5 36 0
2.5 36.5 0
2.5 37 0
2.5 37.5 0
2.5 38 0
2.5 38.5 0
2.5 39 0
2.5 39.5 0
2.5 40 0
2.5 40.5 0
2.5 41 0
2.5 41.5 0
2.5 42 0
2.5 42.5 0
2.5 43 0
2.5 43.5 0
2.5 44 0
2.5 44.5 0
2.5 45 0
2.5 45.5 0
2.5 46 0
2.5 46.5 0
2.5 47 0
2.5 47.5 0
2.5 48 0
2.5 48.5 0
2.5 49 0
3 -0.5 0
3 0 0
3 0.5 0
3 1 0
3 1.5 0
3 2 0
3 2.5 0
3 3 0
3 3.5 0
3 4 0
3 4.5 0
3 5 0
3 5.5 0
3 6 0
3 6.5 0
3 7 0
3 7.5 0
3 8 0
3 8.5 0
3 9 0
3 9.5 0
3 10 0
3 10.5 0
3 11 0
3 11.5 0
3 12 0
3 12.5 0
3 13 0
3 13.5 0
3 14 0
3 14.5 0
3 15 0
3 15.5 0
3 16 0
3 16.5 0
3 17 0
3 17.5 0
3 18 0
3 18.5 0
3 19 0
3 19.5 0
3 20 0
3 20.5 0
3 21 0
3 21.5 0
3 22 0
3 22.5 0
3 23 0
3 23.5 0
3 24 0
3 24.5 0
3 25 0
3 25.5 0
3 26 0
3 26.5 0
3 27 0
3 27.5 0
3 28 0
3 28.5 0
3 29 0
3 29.5 0
3 30 0
3 30.5 0
3 31 0
3 31.5 0
3 32 0
3 32.5 0
3 33 0
3 33.5 0
3 34 0
3 34.5 0
3 35 0
3 35.5 0
3 36 0
3 36.5 0
3 37 0
3 37.5 0
3 38 0
3 38.5 0
3 39 0
3 39.5 0
3 40 0
3 40.5 0
3 41 0
3 41.5 0
3 42 0
3 42.5 0
3 43 0
3 43.5 0
3 44 0
3 44.5 0
3 45 0
3 45.5 0
3 46 0
3 46.5 0
3 47 0
3 47.5 0
3 48 0
3 48.5 0
3 49 0
3.5 -0.5 0
3.5 0 0
3.5 0.5 0
3.5 1 0
3.5 1.5 0
3.5 2 0
3.5 2.5 0
3.5 3 0
3.5 3.5 0
3.5 4 0
3.5 4.5 0
3.5 5 0
3.5 5.5 0
3.5 6 0
3.5 6.5 0
3.5 7 0
3.5 7.5 0
3.5 8 0
3.5 8.5 0
3.5 9 0
3.5 9.5 0
3.5 10 0
3.5 10.5 0
3.5 11 0
3.5 11.5 0
3.5 12 0
3.5 12.5 0
3.5 13 0
3.5 13.5 0
3.5 14 0
3.5 14.5 0
3.5 15 0
3.5 15.5 0
3.5 16 0
3.5 16.5 0
3.5 17 0
3.5 17.5 0
3.5 18 0
3.5 18.5 0
3.5 19 0
3.5 19.5 0
3.5 20 0
3.5 20.5 0
3.5 21 0
3.5 21.5 0
3.5 22 0
3.5 22.5 0
3.5 23 0
3.5 23.5 0
3.5 24 0
3.5 24.5 0
3.5 25 0
3.5 25.5 0
3.5 26 0
3.5 26.5 0
3.5 27 0
3.5 27.5 0
3.5 28 0
3.5 28.5 0
3.5 29 0
3.5 29.5 0
3.5 30 0
3.5 30.5 0
3.5 31 0
3.5 31.5 0
3.5 32 0
3.5 32.5 0
3.5 33 0
3.5 33.5 0
3.5 34 0
3.5 34.5 0
3.5 35 0
3.5 35.5 0
3.5 36 0
3.5 36.5 0
3.5 37 0
3.5 37.5 0
3.5 38 0
3.5 38.5 0
3.5 39 0
3.5 39.5 0
3.5 40 0
3.5 40.5 0
3.5 41 0
3.5 41.5 0
3.5 42 0
3.5 42.5 0
3.5 43 0
3.5 43.5 0
3.5 44 0
3.5 44.5 0
3.5 45 0
3.5 45.5 0
3.5 46 0
3.5 46.5 0
3.5 47 0
3.5 47.5 0
3.5 48 0
3.5 48.5 0
3.5 49 0
4 -0.5 0
4 0 0
4 0.5 0
4 1 0
4 1.5 0
4 2 0
4 2.5 0
4 3 0
4 3.5 0
4 4 0
4 4.5 0
4 5 0
4 5.5 0
4 6 0
4 6.5 0
4 7 0
4 7.5 0
4 8 0
4 8.5 0
4 9 0
4 9.5 0
4 10 0
4 10.5 0
4 11 0
4 11.5 0
4 12 0
4 12.5 0
4 13 0
4 13.5 0
4 14 0
4 14.5 0
4 15 0
4 15.5 0
4 16 0
4 16.5 0
4 17 0
4 17.5 0
4 18 0
4 18.5 0
4 19 0
4 19.5 0
4 20 0
4 20.5 0
4 21 0
4 21.5 0
4 22 0
4 22.5 0
4 23 0
4 23.5 0
4 24 0
4 24.5 0
4 25 0
4 25.5 0
4 26 0
4 26.5 0
4 27 0
4 27.5 0
4 28 0
4 28.5 0
4 29 0
4 29.5 0
4 30 0
4 30.5 0
4 31 0
4 31.5 0
4 32 0
4 32.5 0
4 33 0
4 33.5 0
4 34 0
4 34.5 0
4 35 0
4 35.5 0
4 36 0
4 36.5 0
4 37 0
4 37.5 0
4 38 0
4 38.5 0
4 39 0
4 39.5 0
4 40 0
4 40.5 0
4 41 0
4 41.5 0
4 42 0
4 42.5 0
4 43 0
4 43.5 0
4 44 0
4 44.5 0
4 45 0
4 45.5 0
4 46 0
4 46.5 0
4 47 0
4 47.5 0
4 48 0
4 48.5 0
4 49 0
4.5 -0.5 0
4.5 0 0
4.5 0.5 0
4.5 1 0
4.5 1.5 0
4.5 2 0
4.5 2.5 0
4.5 3 0
4.5 3.5 0
4.5 4 0
4.5 4.5 0
4.5 5 0
4.5 5.5 0
4.5 6 0
4.5 6.5 0
4.5 7 0
4.5 7.5 0
4.5 8 0
4.5 8.5 0
4.5 9 0
4.5 9.5 0
4.5 10 0
4.5 10.5 0
4.5 11 0
4.5 11.5 0
4.5 12 0
4.5 12.5 0
4.5 13 0
4.5 13.5 0
4.5 14 0
4.5 14.5 0
4.5 15 0
4.5 15.5 0
4.5 16 0
4.5 16.5 0
4.5 17 0
4.5 17.5 0
4.5 18 0
4.5 18.5 0
4.5 19 0
4.5 19.5 0
4.5 20 0
4.5 20.5 0
4.5 21 0
4.5 21.5 0
4.5 22 0
4.5 22.5 0
4.5 23 0
4.5 23.5 0
4.5 24 0
4.5 24.5 0
4.5 25 0
4.5 25.5 0
4.5 26 0
4.5 26.5 0
4.5 27 0
4.5 27.5 0
4.5 28 0
4.5 28.5 0
4.5 29 0
4.5 29.5 0
4.5 30 0
4.5 30.5 0
4.5 31 0
4.5 31.5 0
4.5 32 0
4.5 32.5 0
4.5 33 0
4.5 33.5 0
4.5 34 0
4.5 34.5 0
4.5 35 0
4.5 35.5 0
4.5 36 0
4.5 36.5 0
4.5 37 0
4.5 37.5 0
4.5 38 0
4.5 38.5 0
4.5 39 0
4.5 39.5 0
4.5 40 0
4.5 40.5 0
4.5 41 0
4.5 41.5 0
4.5 42 0
4.5 42.5 0
4.5 43 0
4.5 43.5 0
4.5 44 0
4.5 44.5 0
4.5 45 0
4.5 45.5 0
4.5 46 0
4.5 46.5 0
4.5 47 0
4.5 47.5 0
4.5 48 0
4.5 48.5 0
4.5 49 0
5 -0.5 0
[...]
POINT_DATA 10000
SCALARS CON float 1
LOOKUP_TABLE default
1e-05
1e-05
1e-05
1e-05
1e-05
1e-05
1e-05
1e-05
1e-05
1e-05
1e-05
1e-05
1e-05
1e-05
1e-05
1e-05
1e-05
1e-05
1e-05
1e-05
1e-05
1e-05
1e-05
1e-05
1e-05
1e-05
1e-05
1e-05
1e-05
1e-05
1e-05
1e-05
1e-05
1e-05
1e-05
1e-05
1e-05
1e-05
1e-05
1e-05
1e-05
1e-05
1e-05
1e-05
1e-05
1e-05
1e-05
1e-05
1e-05
1e-05
1e-05
1e-05
1e-05
1e-05
1e-05
1e-05
1e-05
1e-05
1e-05
1e-05
1e-05
1e-05
1e-05
1e-05
1e-05
1e-05
1e-05
1e-05
1e-05
1e-05
1e-05
1e-05
1e-05
1e-05
1e-05
1e-05
1e-05
1e-05
1e-05
1e-05
1e-05
1e-05
1e-05
1e-05
1e-05
1e-05
1e-05
1e-05
1e-05
1e-05
1e-05
1e-05
1e-05
1e-05
1e-05
1e-05
1e-05
1e-05
1e-05
1e-05
1e-05
1e-05
1e-05
1e-05
1e-05
1e-05
1e-05
1e-05
1e-05
1e-05
1e-05
1e-05
1e-05
1e-05
1e-05
1e-05
1e-05
1e-05
1e-05
1e-05
1e-05
1e-05
1e-05
1e-05
1e-05
1e-05
1e-05
1e-05
1e-05
1e-05
1e-05
1e-05
1e-05
1e-05
1e-05
1e-05
1e-05
1e-05
1e-05
1e-05
1e-05
1e-05
1e-05
1e-05
1e-05
1e-05
1e-05
1e-05
1e-05
1e-05
1e-05
1e-05
1e-05
1e-05
1e-05
1e-05
1e-05
1e-05
1e-05
1e-05
1e-05
1e-05
1e-05
1e-05
1e-05
1e-05
1e-05
1e-05
1e-05
1e-05
1e-05
1e-05
1e-05
1e-05
1e-05
1e-05
1e-05
1e-05
1e-05
1e-05
1e-05
1e-05
1e-05
1e-05
1e-05
1e-05
1e-05
1e-05
1e-05
1e-05
1e-05
1e-05
1e-05
1e-05
1e-05
1e-05
1e-05
1e-05
1e-05
1e-05
1e-05
1e-05
1e-05
1e-05
1e-05
1e-05
1e-05
1e-05
1e-05
1e-05
1e-05
1e-05
1e-05
1e-05
1e-05
1e-05
1e-05
1e-05
1e-05
1e-05
1e-05
1e-05
1e-05
1e-05
1e-05
1e-05
1e-05
1e-05
1e-05
1e-05
1e-05
1e-05
1e-05
1e-05
1e-05
1e-05
1e-05
1e-05
1e-05
1e-05
1e-05
1e-05
1e-05
1e-05
1e-05
1e-05
1e-05
1e-05
1e-05
1e-05
1e-05
1e-05
1e-05
1e-05
1e-05
1e-05
1e-05
1e-05
1e-05
1e-05
1e-05
1e-05
1e-05
1e-05
1e-05
1e-05
1e-05
1e-05
1e-05
1e-05
1e-05
1e-05
1e-05
1e-05
1e-05
1e-05
1e-05
1e-05
1e-05
1e-05
1e-05
1e-05
1e-05
1e-05
1e-05
1e-05
1e-05
1e-05
1e-05
1e-05
1e-05
1e-05
1e-05
1e-05
1e-05
1e-05
1e-05
1e-05
1e-05
1e-05
1e-05
1e-05
1e-05
1e-05
1e-05
1e-05
1e-05
1e-05
1e-05
1e-05
1e-05
1e-05
1e-05
1e-05
1e-05
1e-05
1e-05
1e-05
1e-05
1e-05
1e-05
1e-05
1e-05
1e-05
1e-05
1e-05
1e-05
1e-05
1e-05
1e-05
1e-05
1e-05
1e-05
1e-05
1e-05
1e-05
1e-05
1e-05
1e-05
1e-05
1e-05
1e-05
1e-05
1e-05
1e-05
1e-05
1e-05
1e-05
1e-05
1e-05
1e-05
1e-05
1e-05
1e-05
1e-05
1e-05
1e-05
1e-05
1e-05
1e-05
1e-05
1e-05
1e-05
1e-05
1e-05
1e-05
1e-05
1e-05
1e-05
1e-05
1e-05
1e-05
1e-05
1e-05
1e-05
1e-05
1e-05
1e-05
1e-05
1e-05
1e-05
1e-05
1e-05
1e-05
1e-05
1e-05
1e-05
1e-05
1e-05
1e-05
1e-05
1e-05
1e-05
1e-05
1e-05
1e-05
1e-05
1e-05
1e-05
1e-05
1e-05
1e-05
1e-05
1e-05
1e-05
1e-05
1e-05
1e-05
1e-05
1e-05
1e-05
1e-05
1e-05
1e-05
1e-05
1e-05
1e-05
1e-05
1e-05
1e-05
1e-05
1e-05
1e-05
1e-05
1e-05
1e-05
1e-05
1e-05
1e-05
1e-05
1e-05
1e-05
1e-05
1e-05
1e-05
1e-05
1e-05
1e-05
1e-05
1e-05
1e-05
1e-05
1e-05
1e-05
1e-05
1e-05
1e-05
1e-05
1e-05
1e-05
1e-05
1e-05
1e-05
1e-05
1e-05
1e-05
1e-05
1e-05
1e-05
1e-05
1e-05
1e-05
1e-05
1e-05
1e-05
1e-05
1e-05
1e-05
1e-05
1e-05
1e-05
1e-05
1e-05
1e-05
1e-05
1e-05
1e-05
1e-05
1e-05
1e-05
1e-05
1e-05
1e-05
1e-05
1e-05
1e-05
1e-05
1e-05
1e-05
1e-05
1e-05
1e-05
1e-05
1e-05
1e-05
1e-05
1e-05
1e-05
1e-05
1e-05
1e-05
1e-05
1e-05
1e-05
1e-05
1e-05
1e-05
1e-05
1e-05
1e-05
1e-05
1e-05
1e-05
1e-05
1e-05
1e-05
1e-05
1e-05
1e-05
1e-05
1e-05
1e-05
1e-05
1e-05
1e-05
1e-05
1e-05
1e-05
1e-05
1e-05
1e-05
1e-05
1e-05
1e-05
1e-05
1e-05
1e-05
1e-05
1e-05
1e-05
1e-05
1e-05
1e-05
1e-05
1e-05
1e-05
1e-05
1e-05
1e-05
1e-05
1e-05
1e-05
1e-05
1e-05
1e-05
1e-05
1e-05
1e-05
1e-05
1e-05
1e-05
1e-05
1e-05
1e-05
1e-05
1e-05
1e-05
1e-05
1e-05
1e-05
1e-05
1e-05
1e-05
1e-05
1e-05
1e-05
1e-05
1e-05
1e-05
1e-05
1e-05
1e-05
1e-05
1e-05
1e-05
1e-05
1e-05
1e-05
1e-05
1e-05
1e-05
1e-05
1e-05
1e-05
1e-05
1e-05
1e-05
1e-05
1e-05
1e-05
1e-05
1e-05
1e-05
1e-05
1e-05
1e-05
1e-05
1e-05
1e-05
1e-05
1e-05
1e-05
1e-05
1e-05
1e-05
1e-05
1e-05
1e-05
1e-05
1e-05
1e-05
1e-05
1e-05
1e-05
1e-05
1e-05
1e-05
1e-05
1e-05
1e-05
1e-05
1e-05
1e-05
1e-05
1e-05
1e-05
1e-05
1e-05
1e-05
1e-05
1e-05
1e-05
1e-05
1e-05
1e-05
1e-05
1e-05
1e-05
1e-05
1e-05
1e-05
1e-05
1e-05
1e-05
1e-05
1e-05
1e-05
1e-05
1e-05
1e-05
1e-05
1e-05
1e-05
1e-05
1e-05
1e-05
1e-05
1e-05
1e-05
1e-05
1e-05
1e-05
1e-05
1e-05
1e-05
1e-05
1e-05
1e-05
1e-05
1e-05
1e-05
1e-05
1e-05
1e-05
1e-05
1e-05
1e-05
1e-05
1e-05
1e-05
1e-05
1e-05
1e-05
1e-05
1e-05
1e-05
1e-05
1e-05
1e-05
1e-05
1e-05
1e-05
1e-05
1e-05
1e-05
1e-05
1e-05
1e-05
1e-05
1e-05
1e-05
1e-05
1e-05
1e-05
1e-05
1e-05
1e-05
1e-05
1e-05
1e-05
1e-05
1e-05
1e-05
1e-05
1e-05
1e-05
1e-05
1e-05
1e-05
1e-05
1e-05
1e-05
1e-05
1e-05
1e-05
1e-05
1e-05
1e-05
1e-05
1e-05
1e-05
1e-05
1e-05
1e-05
1e-05
1e-05
1e-05
1e-05
1e-05
1e-05
1e-05
1e-05
1e-05
1e-05
1e-05
1e-05
1e-05
1e-05
1e-05
1e-05
1e-05
1e-05
1e-05
1e-05
1e-05
1e-05
1e-05
1e-05
1e-05
1e-05
1e-05
1e-05
1e-05
1e-05
1e-05
1e-05
1e-05
1e-05
1e-05
1e-05
1e-05
1e-05
1e-05
1e-05
1e-05
1e-05
1e-05
1e-05
1e-05
1e-05
1e-05
1e-05
1e-05
1e-05
1e-05
1e-05
1e-05
1e-05
1e-05
1e-05
1e-05
1e-05
1e-05
1e-05
1e-05
1e-05
1e-05
1e-05
1e-05
1e-05
1e-05
1e-05
1e-05
1e-05
1e-05
1e-05
1e-05
1e-05
1e-05
1e-05
1e-05
1e-05
1e-05
1e-05
1e-05
1e-05
1e-05
1e-05
1e-05
1e-05
1e-05
1e-05
1e-05
1e-05
1e-05
1e-05
1e-05
1e-05
1e-05
1e-05
1e-05
1e-05
1e-05
1e-05
1e-05
1e-05
1e-05
1e-05
1e-05
1e-05
1e-05
1e-05
1e-05
1e-05
1e-05
1e-05
1e-05
1e-05
1e-05
1e-05
1e-05
1e-05
1e-05
1e-05
1e-05
1e-05
1e-05
1e-05
1e-05
1e-05
1e-05
1e-05
1e-05
1e-05
1e-05
1e-05
1e-05
1e-05
1e-05
1e-05
1e-05
1e-05
1e-05
1e-05
1e-05
1e-05
1e-05
1e-05
1e-05
1e-05
1e-05
1e-05
1e-05
1e-05
1e-05
1e-05
1e-05
1e-05
1e-05
1e-05
1e-05
1e-05
1e-05
1e-05
1e-05
1e-05
1e-05
1e-05
1e-05
1e-05
1e-05
1e-05
1e-05
1e-05
1e-05
1e-05
1e-05
1e-05
1e-05
1e-05
1e-05
1e-05
1e-05
1e-05
1e-05
1e-05
1e-05
1e-05
1e-05
1e-05
1e-05
1e-05
1e-05
1e-05
1e-05
1e-05
1e-05
1e-05
1e-05
1e-05
1e-05
1e-05
1e-05
1e-05
1e-05
1e-05
1e-05
1e-05
1e-05
1e-05
1e-05
1e-05
1e-05
1e-05
1e-05
1e-05
1e-05
1e-05
1e-05
1e-05
1e-05
1e-05
1e-05
1e-05
1e-05
1e-05
1e-05
1e-05
1e-05
1e-05
1e-05
1e-05
1e-05
1e-05
1e-05
1e-05
1e-05
1e-05
1e-05
1e-05
1e-05
1e-05
1e-05
1e-05
1e-05
1e-05
1e-05
1e-05
1e-05
1e-05
1e-05
1e-05
1e-05
1e-05
1e-05
1e-05
1e-05
1e-05
1e-05
1e-05
1e-05
1e-05
1e-05
1e-05
1e-05
1e-05
1e-05
1e-05
1e-05
1e-05
1e-05
1e-05
1e-05
1e-05
1e-05
1e-05
1e-05
1e-05
1e-05
1e-05
1e-05
1e-05
1e-05
1e-05
1e-05
1e-05
1e-05
1e-05
1e-05
1e-05
1e-05
1e-05
1e-05
1e-05
1e-05
1e-05
1e-05
1e-05
1e-05
1e-05
1e-05
1e-05
1e-05
1e-05
1e-05
1e-05
1e-05
1e-05
1e-05
1e-05
1e-05
1e-05
1e-05
1e-05
1e-05
1e-05
1e-05
1e-05
1e-05
1e-05
1e-05
1e-05
1e-05
1e-05
1e-05
1e-05
1e-05
1e-05
1e-05
1e-05
1e-05
1e-05
1e-05
1e-05
1e-05
1e-05
1e-05
1e-05
1e-05
1e-05
1e-05
1e-05
1e-05
1e-05
1e-05
1e-05
1e-05
1e-05
1e-05
1e-05
1e-05
1e-05
1e-05
1e-05
1e-05
1e-05
1e-05
1e-05
1e-05
1e-05
1e-05
1e-05
1e-05
1e-05
1e-05
1e-05
1e-05
1e-05
1e-05
1e-05
1e-05
1e-05
1e-05
1e-05
1e-05
1e-05
1e-05
1e-05
1e-05
1e-05
1e-05
1e-05
1e-05
1e-05
1e-05
1e-05
1e-05
1e-05
1e-05
1e-05
1e-05
1e-05
1e-05
1e-05
1e-05
1e-05
1e-05
1e-05
1e-05
1e-05
1e-05
1e-05
1e-05
1e-05
1e-05
1e-05
1e-05
1e-05
1e-05
1e-05
1e-05
1e-05
1e-05
1e-05
1e-05
1e-05
1e-05
1e-05
1e-05
1e-05
1e-05
1e-05
1e-05
1e-05
1e-05
1e-05
1e-05
1e-05
1e-05
1e-05
1e-05
1e-05
1e-05
1e-05
1e-05
1e-05
1e-05
1e-05
1e-05
1e-05
1e-05
1e-05
1e-05
1e-05
1e-05
1e-05
1e-05
1e-05
1e-05
1e-05
1e-05
1e-05
1e-05
1e-05
1e-05
1e-05
1e-05
1e-05
1e-05
1e-05
1e-05
1e-05
1e-05
1e-05
1e-05
1e-05
1e-05
1e-05
1e-05
1e-05
1e-05
1e-05
1e-05
1e-05
1e-05
1e-05
1e-05
1e-05
1e-05
1e-05
1e-05
1e-05
1e-05
1e-05
1e-05
1e-05
1e-05
1e-05
1e-05
1e-05
1e-05
1e-05
1e-05
1e-05
1e-05
1e-05
1e-05
1e-05
1e-05
1e-05
1e-05
1e-05
1e-05
1e-05
1e-05
1e-05
1e-05
1e-05
1e-05
1e-05
1e-05
1e-05
1e-05
1e-05
1e-05
1e-05
1e-05
1e-05
1e-05
1e-05
1e-05
1e-05
1e-05
1e-05
1e-05
1e-05
1e-05
1e-05
1e-05
1e-05
1e-05
1e-05
1e-05
1e-05
1e-05
1e-05
1e-05
1e-05
1e-05
1e-05
1e-05
1e-05
1e-05
1e-05
1e-05
1e-05
1e-05
1e-05
1e-05
1e-05
1e-05
1e-05
1e-05
1e-05
1e-05
1e-05
1e-05
1e-05
1e-05
1e-05
1e-05
1e-05
1e-05
1e-05
1e-05
1e-05
1e-05
1e-05
1e-05
1e-05
1e-05
1e-05
1e-05
1e-05
1e-05
1e-05
1e-05
1e-05
1e-05
1e-05
1e-05
1e-05
1e-05
1e-05
1e-05
1e-05
1e-05
1e-05
1e-05
1e-05
1e-05
1e-05
1e-05
1e-05
1e-05
1e-05
1e-05
1e-05
1e-05
1e-05
1e-05
1e-05
1e-05
1e-05
1e-05
1e-05
1e-05
1e-05
1e-05
1e-05
1e-05
1e-05
1e-05
1e-05
1e-05
1e-05
1e-05
1e-05
1e-05
1e-05
1e-05
1e-05
1e-05
1e-05
1e-05
1e-05
1e-05
1e-05
1e-05
1e-05
1e-05
1e-05
1e-05
1e-05
1e-05
1e-05
1e-05
1e-05
1e-05
1e-05
1e-05
1e-05
1e-05
1e-05
1e-05
1e-05
1e-05
1e-05
1e-05
1e-05
1e-05
1e-05
1e-05
1e-05
1e-05
1e-05
1e-05
1e-05
1e-05
1e-05
1e-05
1e-05
1e-05
1e-05
1e-05
1e-05
1e-05
1e-05
1e-05
1e-05
1e-05
1e-05
1e-05
1e-05
1e-05
1e-05
1e-05
1e-05
1e-05
1e-05
1e-05
1e-05
1e-05
1e-05
1e-05
1e-05
1e-05
1e-05
1e-05
1e-05
1e-05
1e-05
1e-05
1e-05
1e-05
1e-05
1e-05
1e-05
1e-05
1e-05
1e-05
1e-05
1e-05
1e-05
1e-05
1e-05
1e-05
1e-05
1e-05
1e-05
1e-05
1e-05
1e-05
1e-05
1e-05
1e-05
1e-05
1e-05
1e-05
1e-05
1e-05
1e-05
1e-05
1e-05
1e-05
1e-05
1e-05
1e-05
1e-05
1e-05
1e-05
1e-05
1e-05
1e-05
1e-05
1e-05
1e-05
1e-05
1e-05
1e-05
1e-05
1e-05
1e-05
1e-05
1e-05
1e-05
1e-05
1e-05
1e-05
1e-05
1e-05
1e-05
1e-05
1e-05
1e-05
1e-05
1e-05
1e-05
1e-05
1e-05
1e-05
1e-05
1e-05
1e-05
1e-05
1e-05
1e-05
1e-05
1e-05
1e-05
1e-05
1e-05
1e-05
1e-05
1e-05
1e-05
1e-05
1e-05
1e-05
1e-05
1e-05
1e-05
1e-05
1e-05
1e-05
1e-05
1e-05
1e-05
1e-05
1e-05
1e-05
1e-05
1e-05
1e-05
1e-05
1e-05
1e-05
1e-05
1e-05
1e-05
1e-05
1e-05
1e-05
1e-05
1e-05
1e-05
1e-05
1e-05
1e-05
1e-05
1e-05
1e-05
1e-05
1e-05
1e-05
1e-05
1e-05
1e-05
1e-05
1e-05
1e-05
1e-05
1e-05
1e-05
1e-05
1e-05
1e-05
1e-05
1e-05
1e-05
1e-05
1e-05
1e-05
1e-05
1e-05
1e-05
1e-05
1e-05
1e-05
1e-05
1e-05
1e-05
1e-05
1e-05
1e-05
1e-05
1e-05
1e-05
1e-05
1e-05
1e-05
1e-05
1e-05
1e-05
1e-05
1e-05
1e-05
1e-05
1e-05
1e-05
1e-05
1e-05
1e-05
1e-05
1e-05
1e-05
1e-05
1e-05
1e-05
1e-05
1e-05
1e-05
1e-05
1e-05
1e-05
1e-05
1e-05
1e-05
1e-05
1e-05
1e-05
1e-05
1e-05
1e-05
1e-05
1e-05
1e-05
1e-05
1e-05
1e-05
1e-05
1e-05
1e-05
1e-05
1e-05
1e-05
1e-05
1e-05
1e-05
1e-05
1e-05
1e-05
1e-05
1e-05
1e-05
1e-05
1e-05
1e-05
1e-05
1e-05
1e-05
1e-05
1e-05
1e-05
1e-05
1e-05
1e-05
1e-05
1e-05
1e-05
1e-05
1e-05
1e-05
1e-05
1e-05
1e-05
1e-05
1e-05
1e-05
1e-05
1e-05
1e-05
1e-05
1e-05
1e-05
1e-05
1e-05
1e-05
1e-05
1e-05
1e-05
1e-05
1e-05
1e-05
1e-05
1e-05
1e-05
1e-05
1e-05
1e-05
1e-05
1e-05
1e-05
1e-05
1e-05
1e-05
1e-05
1e-05
1e-05
1e-05
1e-05
1e-05
1e-05
1e-05
1e-05
1e-05
1e-05
1e-05
1e-05
1e-05
1e-05
1e-05
1e-05
1e-05
1e-05
1e-05
1e-05
1e-05
1e-05
1e-05
1e-05
1e-05
1e-05
1e-05
1e-05
1e-05
1e-05
1e-05
1e-05
1e-05
1e-05
1e-05
1e-05
1e-05
1e-05
1e-05
1e-05
1e-05
1e-05
1e-05
1e-05
1e-05
1e-05
1e-05
1e-05
1e-05
1e-05
3.54678e-05
0.00012209
0.00024108
0.000324921
0.00024108
0.00012209
3.54678e-05
1e-05
1e-05
1e-05
1e-05
1e-05
1e-05
1e-05
1e-05
1e-05
1e-05
1e-05
1e-05
1e-05
1e-05
1e-05
1e-05
1e-05
1e-05
1e-05
1e-05
1e-05
1e-05
1e-05
1e-05
1e-05
1e-05
1e-05
1e-05
1e-05
1e-05
1e-05
1e-05
1e-05
1e-05
1e-05
1e-05
1e-05
1e-05
1e-05
1e-05
1e-05
1e-05
1e-05
1e-05
1e-05
1e-05
1e-05
1e-05
1e-05
1e-05
1e-05
1e-05
1e-05
1e-05
1e-05
1e-05
1e-05
1e-05
1e-05
1e-05
1e-05
1e-05
1e-05
1e-05
1e-05
1e-05
1e-05
1e-05
1e-05
1e-05
1e-05
1e-05
1e-05
1e-05
1e-05
1e-05
1e-05
1e-05
1e-05
1e-05
1e-05
1e-05
1e-05
1e-05
1e-05
1e-05
1e-05
1e-05
1e-05
1e-05
1.34083e-05
0.000924948
0.00998187
0.0200463
0.02897
0.0349591
0.0370675
0.0349591
0.02897
0.0200463
0.00998187
0.000924948
1.34083e-05
1e-05
1e-05
1e-05
1e-05
1e-05
1e-05
1e-05
1e-05
1e-05
1e-05
1e-05
1e-05
1e-05
1e-05
1e-05
1e-05
1e-05
1e-05
1e-05
1e-05
1e-05
1e-05
1e-05
1e-05
1e-05
1e-05
1e-05
1e-05
1e-05
1e-05
1e-05
1e-05
1e-05
1e-05
1e-05
1e-05
1e-05
1e-05
1e-05
1e-05
1e-05
1e-05
1e-05
1e-05
1e-05
1e-05
1e-05
1e-05
1e-05
1e-05
1e-05
1e-05
1e-05
1e-05
1e-05
1e-05
1e-05
1e-05
1e-05
1e-05
1e-05
1e-05
1e-05
1e-05
1e-05
1e-05
1e-05
1e-05
1e-05
1e-05
1e-05
1e-05
1e-05
1e-05
1e-05
1e-05
1e-05
1e-05
1e-05
1e-05
1e-05
1e-05
1e-05
1e-05
1e-05
1.08728e-05
0.00261679
0.0159474
0.0382989
0.0745897
0.121436
0.166225
0.196314
0.206733
0.196314
0.166225
0.121436
0.0745897
0.0382989
0.0159474
0.00261679
1.08728e-05
1e-05
1e-05
1e-05
1e-05
1e-05
1e-05
1e-05
1e-05
1e-05
1e-05
1e-05
1e-05
1e-05
1e-05
1e-05
1e-05
1e-05
1e-05
1e-05
1e-05
1e-05
1e-05
1e-05
1e-05
1e-05
1e-05
1e-05
1e-05
1e-05
1e-05
1e-05
1e-05
1e-05
1e-05
1e-05
1e-05
1e-05
1e-05
1e-05
1e-05
1e-05
1e-05
1e-05
1e-05
1e-05
1e-05
1e-05
1e-05
1e-05
1e-05
1e-05
1e-05
1e-05
1e-05
1e-05
1e-05
1e-05
1e-05
1e-05
1e-05
1e-05
1e-05
1e-05
1e-05
1e-05
1e-05
1e-05
1e-05
1e-05
1e-05
1e-05
1e-05
1e-05
1e-05
1e-05
1e-05
1e-05
1e-05
1e-05
1e-05
1e-05
1e-05
7.6728e-05
0.0089518
0.032797
0.0889652
0.188919
0.329714
0.493406
0.623531
0.692461
0.712653
0.692461
0.623531
0.493406
0.329714
0.188919
0.0889652
0.032797
0.0089518
7.6728e-05
1e-05
1e-05
1e-05
1e-05
1e-05
1e-05
1e-05
1e-05
1e-05
1e-05
1e-05
1e-05
1e-05
1e-05
1e-05
1e-05
1e-05
1e-05
1e-05
1e-05
1e-05
1e-05
1e-05
1e-05
1e-05
1e-05
1e-05
1e-05
1e-05
1e-05
1e-05
1e-05
1e-05
1e-05
1e-05
1e-05
1e-05
1e-05
1e-05
1e-05
1e-05
1e-05
1e-05
1e-05
1e-05
1e-05
1e-05
1e-05
1e-05
1e-05
1e-05
1e-05
1e-05
1e-05
1e-05
1e-05
1e-05
1e-05
1e-05
1e-05
1e-05
1e-05
1e-05
1e-05
1e-05
1e-05
1e-05
1e-05
1e-05
1e-05
1e-05
1e-05
1e-05
1e-05
1e-05
1e-05
1e-05
1e-05
1e-05
1e-05
1.09911e-05
0.00896806
0.0420985
0.136087
0.335715
0.598289
0.776706
0.868543
0.914579
0.935324
0.941159
0.935324
0.914579
0.868543
0.776706
0.598289
0.335715
0.136087
0.0420985
0.00896806
1.09911e-05
1e-05
1e-05
1e-05
1e-05
1e-05
1e-05
1e-05
1e-05
1e-05
1e-05
1e-05
1e-05
1e-05
1e-05
1e-05
1e-05
1e-05
1e-05
1e-05
1e-05
1e-05
1e-05
1e-05
1e-05
1e-05
1e-05
1e-05
1e-05
1e-05
1e-05
1e-05
1e-05
1e-05
1e-05
1e-05
1e-05
1e-05
1e-05
1e-05
1e-05
1e-05
1e-05
1e-05
1e-05
1e-05
1e-05
1e-05
1e-05
1e-05
1e-05
1e-05
1e-05
1e-05
1e-05
1e-05
1e-05
1e-05
1e-05
1e-05
1e-05
1e-05
1e-05
1e-05
1e-05
1e-05
1e-05
1e-05
1e-05
1e-05
1e-05
1e-05
1e-05
1e-05
1e-05
1e-05
1e-05
1e-05
1e-05
1e-05
0.00265225
0.0328374
0.136104
0.401469
0.720009
0.88592
0.951417
0.976897
0.987363
0.991826
0.99313
0.991826
0.987363
0.976897
0.951417
0.88592
0.720009
0.401469
0.136104
0.0328374
0.00265225
1e-05
1e-05
1e-05
1e-05
1e-05
1e-05
1e-05
1e-05
1e-05
1e-05
1e-05
1e-05
1e-05
1e-05
1e-05
1e-05
1e-05
1e-05
1e-05
1e-05
1e-05
1e-05
1e-05
1e-05
1e-05
1e-05
1e-05
1e-05
1e-05
1e-05
1e-05
1e-05
1e-05
1e-05
1e-05
1e-05
1e-05
1e-05
1e-05
1e-05
1e-05
1e-05
1e-05
1e-05
1e-05
1e-05
1e-05
1e-05
1e-05
1e-05
1e-05
1e-05
1e-05
1e-05
1e-05
1e-05
1e-05
1e-05
1e-05
1e-05
1e-05
1e-05
1e-05
1e-05
1e-05
1e-05
1e-05
1e-05
1e-05
1e-05
1e-05
1e-05
1e-05
1e-05
1e-05
1e-05
1e-05
1e-05
1.48539e-05
0.0159632
0.0887937
0.335449
0.720011
0.912508
0.975278
0.993838
0.999176
0.9999
0.9999
0.9999
0.9999
0.9999
0.999176
0.993838
0.975278
0.912508
0.720011
0.335449
0.0887937
0.0159632
1.48539e-05
1e-05
1e-05
1e-05
1e-05
1e-05
1e-05
1e-05
1e-05
1e-05
1e-05
1e-05
1e-05
1e-05
1e-05
1e-05
1e-05
1e-05
1e-05
1e-05
1e-05
1e-05
1e-05
1e-05
1e-05
1e-05
1e-05
1e-05
1e-05
1e-05
1e-05
1e-05
1e-05
1e-05
1e-05
1e-05
1e-05
1e-05
1e-05
1e-05
1e-05
1e-05
1e-05
1e-05
1e-05
1e-05
1e-05
1e-05
1e-05
1e-05
1e-05
1e-05
1e-05
1e-05
1e-05
1e-05
1e-05
1e-05
1e-05
1e-05
1e-05
1e-05
1e-05
1e-05
1e-05
1e-05
1e-05
1e-05
1e-05
1e-05
1e-05
1e-05
1e-05
1e-05
1e-05
1e-05
1e-05
1e-05
0.000951681
0.037957
0.187319
0.596859
0.885743
0.975326
0.997064
0.9999
0.9999
0.99989
0.99968
0.999604
0.99968
0.99989
0.9999
0.9999
0.997064
0.975326
0.885743
0.596859
0.187319
0.037957
0.000951681
1e-05
1e-05
1e-05
1e-05
1e-05
1e-05
1e-05
1e-05
1e-05
1e-05
1e-05
1e-05
1e-05
1e-05
1e-05
1e-05
1e-05
1e-05
1e-05
1e-05
1e-05
1e-05
1e-05
1e-05
1e-05
1e-05
1e-05
1e-05
1e-05
1e-05
1e-05
1e-05
1e-05
1e-05
1e-05
1e-05
1e-05
1e-05
1e-05
1e-05
1e-05
1e-05
1e-05
1e-05
1e-05
1e-05
1e-05
1e-05
1e-05
1e-05
1e-05
1e-05
1e-05
1e-05
1e-05
1e-05
1e-05
1e-05
1e-05
1e-05
1e-05
1e-05
1e-05
1e-05
1e-05
1e-05
1e-05
1e-05
1e-05
1e-05
1e-05
1e-05
1e-05
1e-05
1e-05
1e-05
1e-05
0.00973639
0.0728136
0.323454
0.773738
0.950963
0.993889
0.9999
0.999893
0.999411
0.99922
0.999126
0.999102
0.999126
0.99922
0.999411
0.999893
0.9999
0.993889
0.950963
0.773738
0.323454
0.0728136
0.00973639
1e-05
1e-05
1e-05
1e-05
1e-05
1e-05
1e-05
1e-05
1e-05
1e-05
1e-05
1e-05
1e-05
1e-05
1e-05
1e-05
1e-05
1e-05
1e-05
1e-05
1e-05
1e-05
1e-05
1e-05
1e-05
1e-05
1e-05
1e-05
1e-05
1e-05
1e-05
1e-05
1e-05
1e-05
1e-05
1e-05
1e-05
1e-05
1e-05
1e-05
1e-05
1e-05
1e-05
1e-05
1e-05
1e-05
1e-05
1e-05
1e-05
1e-05
1e-05
1e-05
1e-05
1e-05
1e-05
1e-05
1e-05
1e-05
1e-05
1e-05
1e-05
1e-05
1e-05
1e-05
1e-05
1e-05
1e-05
1e-05
1e-05
1e-05
1e-05
1e-05
1e-05
1e-05
1e-05
1e-05
3.47591e-05
0.0190818
0.11661
0.479468
0.863829
0.976022
0.999191
0.9999
0.999409
0.999083
0.998997
0.998986
0.998987
0.998986
0.998997
0.999083
0.999409
0.9999
0.999191
0.976022
0.863829
0.479468
0.11661
0.0190818
3.47591e-05
1e-05
1e-05
1e-05
1e-05
1e-05
1e-05
1e-05
1e-05
1e-05
1e-05
1e-05
1e-05
1e-05
1e-05
1e-05
1e-05
1e-05
1e-05
1e-05
1e-05
1e-05
1e-05
1e-05
1e-05
1e-05
1e-05
1e-05
1e-05
1e-05
1e-05
1e-05
1e-05
1e-05
1e-05
1e-05
1e-05
1e-05
1e-05
1e-05
1e-05
1e-05
1e-05
1e-05
1e-05
1e-05
1e-05
1e-05
1e-05
1e-05
1e-05
1e-05
1e-05
1e-05
1e-05
1e-05
1e-05
1e-05
1e-05
1e-05
1e-05
1e-05
1e-05
1e-05
1e-05
1e-05
1e-05
1e-05
1e-05
1e-05
1e-05
1e-05
1e-05
1e-05
1e-05
1e-05
0.000105678
0.0268967
0.157585
0.604761
0.908429
0.985863
0.9999
0.9999
0.999224
0.998997
0.998978
0.998988
0.998992
0.998988
0.998978
0.998997
0.999224
0.9999
0.9999
0.985863
0.908429
0.604761
0.157585
0.0268967
0.000105678
1e-05
1e-05
1e-05
1e-05
1e-05
1e-05
1e-05
1e-05
1e-05
1e-05
1e-05
1e-05
1e-05
1e-05
1e-05
1e-05
1e-05
1e-05
1e-05
1e-05
1e-05
1e-05
1e-05
1e-05
1e-05
1e-05
1e-05
1e-05
1e-05
1e-05
1e-05
1e-05
1e-05
1e-05
1e-05
1e-05
1e-05
1e-05
1e-05
1e-05
1e-05
1e-05
1e-05
1e-05
1e-05
1e-05
1e-05
1e-05
1e-05
1e-05
1e-05
1e-05
1e-05
1e-05
1e-05
1e-05
1e-05
1e-05
1e-05
1e-05
1e-05
1e-05
1e-05
1e-05
1e-05
1e-05
1e-05
1e-05
1e-05
1e-05
1e-05
1e-05
1e-05
1e-05
1e-05
0.000164697
0.031691
0.184884
0.673469
0.928118
0.98935
0.9999
0.999763
0.999142
0.998986
0.998988
0.998998
0.999
0.998998
0.998988
0.998986
0.999142
0.999763
0.9999
0.98935
0.928118
0.673469
0.184884
0.031691
0.000164697
1e-05
1e-05
1e-05
1e-05
1e-05
1e-05
1e-05
1e-05
1e-05
1e-05
1e-05
1e-05
1e-05
1e-05
1e-05
1e-05
1e-05
1e-05
1e-05
1e-05
1e-05
1e-05
1e-05
1e-05
1e-05
1e-05
1e-05
1e-05
1e-05
1e-05
1e-05
1e-05
1e-05
1e-05
1e-05
1e-05
1e-05
1e-05
1e-05
1e-05
1e-05
1e-05
1e-05
1e-05
1e-05
1e-05
1e-05
1e-05
1e-05
1e-05
1e-05
1e-05
1e-05
1e-05
1e-05
1e-05
1e-05
1e-05
1e-05
1e-05
1e-05
1e-05
1e-05
1e-05
1e-05
1e-05
1e-05
1e-05
1e-05
1e-05
1e-05
1e-05
1e-05
1e-05
1e-05
0.000138755
0.0333763
0.197537
0.701136
0.934415
0.989572
0.999813
0.999758
0.999144
0.998989
0.99899
0.998999
0.999001
0.998999
0.99899
0.998989
0.999144
0.999758
0.999813
0.989572
0.934415
0.701136
0.197537
0.0333763
0.000138755
1e-05
1e-05
1e-05
1e-05
1e-05
1e-05
1e-05
1e-05
1e-05
1e-05
1e-05
1e-05
1e-05
1e-05
1e-05
1e-05
1e-05
1e-05
1e-05
1e-05
1e-05
1e-05
1e-05
1e-05
1e-05
1e-05
1e-05
1e-05
1e-05
1e-05
1e-05
1e-05
1e-05
1e-05
1e-05
1e-05
1e-05
1e-05
1e-05
1e-05
1e-05
1e-05
1e-05
1e-05
1e-05
1e-05
1e-05
1e-05
1e-05
1e-05
1e-05
1e-05
1e-05
1e-05
1e-05
1e-05
1e-05
1e-05
1e-05
1e-05
1e-05
1e-05
1e-05
1e-05
1e-05
1e-05
1e-05
1e-05
1e-05
1e-05
1e-05
1e-05
1e-05
1e-05
1e-05
4.73546e-05
0.033578
0.202833
0.710263
0.934879
0.988129
0.999359
0.999823
0.999199
0.998997
0.998986
0.998995
0.998998
0.998995
0.998986
0.998997
0.999199
0.999823
0.999359
0.988129
0.934879
0.710263
0.202833
0.033578
4.73546e-05
1e-05
1e-05
1e-05
1e-05
1e-05
1e-05
1e-05
1e-05
1e-05
1e-05
1e-05
1e-05
1e-05
1e-05
1e-05
1e-05
1e-05
1e-05
1e-05
1e-05
1e-05
1e-05
1e-05
1e-05
1e-05
1e-05
1e-05
1e-05
1e-05
1e-05
1e-05
1e-05
1e-05
1e-05
1e-05
1e-05
1e-05
1e-05
1e-05
1e-05
1e-05
1e-05
1e-05
1e-05
1e-05
1e-05
1e-05
1e-05
1e-05
1e-05
1e-05
1e-05
1e-05
1e-05
1e-05
1e-05
1e-05
1e-05
1e-05
1e-05
1e-05
1e-05
1e-05
1e-05
1e-05
1e-05
1e-05
1e-05
1e-05
1e-05
1e-05
1e-05
1e-05
1e-05
1e-05
1e-05
0.0368804
0.216831
0.721587
0.935428
0.986449
0.998477
0.999822
0.999287
0.999023
0.998981
0.998984
0.998986
0.998984
0.998981
0.999023
0.999287